# vtk DataFile Version 2.0
generated by CFD-lab course output (written by Tobias Neckel) 
ASCII

DATASET STRUCTURED_GRID
DIMENSIONS  86 19 1 
POINTS 1634 float

0.000000 0.000000 0
0.100000 0.000000 0
0.200000 0.000000 0
0.300000 0.000000 0
0.400000 0.000000 0
0.500000 0.000000 0
0.600000 0.000000 0
0.700000 0.000000 0
0.800000 0.000000 0
0.900000 0.000000 0
1.000000 0.000000 0
1.100000 0.000000 0
1.200000 0.000000 0
1.300000 0.000000 0
1.400000 0.000000 0
1.500000 0.000000 0
1.600000 0.000000 0
1.700000 0.000000 0
1.800000 0.000000 0
1.900000 0.000000 0
2.000000 0.000000 0
2.100000 0.000000 0
2.200000 0.000000 0
2.300000 0.000000 0
2.400000 0.000000 0
2.500000 0.000000 0
2.600000 0.000000 0
2.700000 0.000000 0
2.800000 0.000000 0
2.900000 0.000000 0
3.000000 0.000000 0
3.100000 0.000000 0
3.200000 0.000000 0
3.300000 0.000000 0
3.400000 0.000000 0
3.500000 0.000000 0
3.600000 0.000000 0
3.700000 0.000000 0
3.800000 0.000000 0
3.900000 0.000000 0
4.000000 0.000000 0
4.100000 0.000000 0
4.200000 0.000000 0
4.300000 0.000000 0
4.400000 0.000000 0
4.500000 0.000000 0
4.600000 0.000000 0
4.700000 0.000000 0
4.800000 0.000000 0
4.900000 0.000000 0
5.000000 0.000000 0
5.100000 0.000000 0
5.200000 0.000000 0
5.300000 0.000000 0
5.400000 0.000000 0
5.500000 0.000000 0
5.600000 0.000000 0
5.700000 0.000000 0
5.800000 0.000000 0
5.900000 0.000000 0
6.000000 0.000000 0
6.100000 0.000000 0
6.200000 0.000000 0
6.300000 0.000000 0
6.400000 0.000000 0
6.500000 0.000000 0
6.600000 0.000000 0
6.700000 0.000000 0
6.800000 0.000000 0
6.900000 0.000000 0
7.000000 0.000000 0
7.100000 0.000000 0
7.200000 0.000000 0
7.300000 0.000000 0
7.400000 0.000000 0
7.500000 0.000000 0
7.600000 0.000000 0
7.700000 0.000000 0
7.800000 0.000000 0
7.900000 0.000000 0
8.000000 0.000000 0
8.100000 0.000000 0
8.200000 0.000000 0
8.300000 0.000000 0
8.400000 0.000000 0
8.500000 0.000000 0
0.000000 0.055556 0
0.100000 0.055556 0
0.200000 0.055556 0
0.300000 0.055556 0
0.400000 0.055556 0
0.500000 0.055556 0
0.600000 0.055556 0
0.700000 0.055556 0
0.800000 0.055556 0
0.900000 0.055556 0
1.000000 0.055556 0
1.100000 0.055556 0
1.200000 0.055556 0
1.300000 0.055556 0
1.400000 0.055556 0
1.500000 0.055556 0
1.600000 0.055556 0
1.700000 0.055556 0
1.800000 0.055556 0
1.900000 0.055556 0
2.000000 0.055556 0
2.100000 0.055556 0
2.200000 0.055556 0
2.300000 0.055556 0
2.400000 0.055556 0
2.500000 0.055556 0
2.600000 0.055556 0
2.700000 0.055556 0
2.800000 0.055556 0
2.900000 0.055556 0
3.000000 0.055556 0
3.100000 0.055556 0
3.200000 0.055556 0
3.300000 0.055556 0
3.400000 0.055556 0
3.500000 0.055556 0
3.600000 0.055556 0
3.700000 0.055556 0
3.800000 0.055556 0
3.900000 0.055556 0
4.000000 0.055556 0
4.100000 0.055556 0
4.200000 0.055556 0
4.300000 0.055556 0
4.400000 0.055556 0
4.500000 0.055556 0
4.600000 0.055556 0
4.700000 0.055556 0
4.800000 0.055556 0
4.900000 0.055556 0
5.000000 0.055556 0
5.100000 0.055556 0
5.200000 0.055556 0
5.300000 0.055556 0
5.400000 0.055556 0
5.500000 0.055556 0
5.600000 0.055556 0
5.700000 0.055556 0
5.800000 0.055556 0
5.900000 0.055556 0
6.000000 0.055556 0
6.100000 0.055556 0
6.200000 0.055556 0
6.300000 0.055556 0
6.400000 0.055556 0
6.500000 0.055556 0
6.600000 0.055556 0
6.700000 0.055556 0
6.800000 0.055556 0
6.900000 0.055556 0
7.000000 0.055556 0
7.100000 0.055556 0
7.200000 0.055556 0
7.300000 0.055556 0
7.400000 0.055556 0
7.500000 0.055556 0
7.600000 0.055556 0
7.700000 0.055556 0
7.800000 0.055556 0
7.900000 0.055556 0
8.000000 0.055556 0
8.100000 0.055556 0
8.200000 0.055556 0
8.300000 0.055556 0
8.400000 0.055556 0
8.500000 0.055556 0
0.000000 0.111111 0
0.100000 0.111111 0
0.200000 0.111111 0
0.300000 0.111111 0
0.400000 0.111111 0
0.500000 0.111111 0
0.600000 0.111111 0
0.700000 0.111111 0
0.800000 0.111111 0
0.900000 0.111111 0
1.000000 0.111111 0
1.100000 0.111111 0
1.200000 0.111111 0
1.300000 0.111111 0
1.400000 0.111111 0
1.500000 0.111111 0
1.600000 0.111111 0
1.700000 0.111111 0
1.800000 0.111111 0
1.900000 0.111111 0
2.000000 0.111111 0
2.100000 0.111111 0
2.200000 0.111111 0
2.300000 0.111111 0
2.400000 0.111111 0
2.500000 0.111111 0
2.600000 0.111111 0
2.700000 0.111111 0
2.800000 0.111111 0
2.900000 0.111111 0
3.000000 0.111111 0
3.100000 0.111111 0
3.200000 0.111111 0
3.300000 0.111111 0
3.400000 0.111111 0
3.500000 0.111111 0
3.600000 0.111111 0
3.700000 0.111111 0
3.800000 0.111111 0
3.900000 0.111111 0
4.000000 0.111111 0
4.100000 0.111111 0
4.200000 0.111111 0
4.300000 0.111111 0
4.400000 0.111111 0
4.500000 0.111111 0
4.600000 0.111111 0
4.700000 0.111111 0
4.800000 0.111111 0
4.900000 0.111111 0
5.000000 0.111111 0
5.100000 0.111111 0
5.200000 0.111111 0
5.300000 0.111111 0
5.400000 0.111111 0
5.500000 0.111111 0
5.600000 0.111111 0
5.700000 0.111111 0
5.800000 0.111111 0
5.900000 0.111111 0
6.000000 0.111111 0
6.100000 0.111111 0
6.200000 0.111111 0
6.300000 0.111111 0
6.400000 0.111111 0
6.500000 0.111111 0
6.600000 0.111111 0
6.700000 0.111111 0
6.800000 0.111111 0
6.900000 0.111111 0
7.000000 0.111111 0
7.100000 0.111111 0
7.200000 0.111111 0
7.300000 0.111111 0
7.400000 0.111111 0
7.500000 0.111111 0
7.600000 0.111111 0
7.700000 0.111111 0
7.800000 0.111111 0
7.900000 0.111111 0
8.000000 0.111111 0
8.100000 0.111111 0
8.200000 0.111111 0
8.300000 0.111111 0
8.400000 0.111111 0
8.500000 0.111111 0
0.000000 0.166667 0
0.100000 0.166667 0
0.200000 0.166667 0
0.300000 0.166667 0
0.400000 0.166667 0
0.500000 0.166667 0
0.600000 0.166667 0
0.700000 0.166667 0
0.800000 0.166667 0
0.900000 0.166667 0
1.000000 0.166667 0
1.100000 0.166667 0
1.200000 0.166667 0
1.300000 0.166667 0
1.400000 0.166667 0
1.500000 0.166667 0
1.600000 0.166667 0
1.700000 0.166667 0
1.800000 0.166667 0
1.900000 0.166667 0
2.000000 0.166667 0
2.100000 0.166667 0
2.200000 0.166667 0
2.300000 0.166667 0
2.400000 0.166667 0
2.500000 0.166667 0
2.600000 0.166667 0
2.700000 0.166667 0
2.800000 0.166667 0
2.900000 0.166667 0
3.000000 0.166667 0
3.100000 0.166667 0
3.200000 0.166667 0
3.300000 0.166667 0
3.400000 0.166667 0
3.500000 0.166667 0
3.600000 0.166667 0
3.700000 0.166667 0
3.800000 0.166667 0
3.900000 0.166667 0
4.000000 0.166667 0
4.100000 0.166667 0
4.200000 0.166667 0
4.300000 0.166667 0
4.400000 0.166667 0
4.500000 0.166667 0
4.600000 0.166667 0
4.700000 0.166667 0
4.800000 0.166667 0
4.900000 0.166667 0
5.000000 0.166667 0
5.100000 0.166667 0
5.200000 0.166667 0
5.300000 0.166667 0
5.400000 0.166667 0
5.500000 0.166667 0
5.600000 0.166667 0
5.700000 0.166667 0
5.800000 0.166667 0
5.900000 0.166667 0
6.000000 0.166667 0
6.100000 0.166667 0
6.200000 0.166667 0
6.300000 0.166667 0
6.400000 0.166667 0
6.500000 0.166667 0
6.600000 0.166667 0
6.700000 0.166667 0
6.800000 0.166667 0
6.900000 0.166667 0
7.000000 0.166667 0
7.100000 0.166667 0
7.200000 0.166667 0
7.300000 0.166667 0
7.400000 0.166667 0
7.500000 0.166667 0
7.600000 0.166667 0
7.700000 0.166667 0
7.800000 0.166667 0
7.900000 0.166667 0
8.000000 0.166667 0
8.100000 0.166667 0
8.200000 0.166667 0
8.300000 0.166667 0
8.400000 0.166667 0
8.500000 0.166667 0
0.000000 0.222222 0
0.100000 0.222222 0
0.200000 0.222222 0
0.300000 0.222222 0
0.400000 0.222222 0
0.500000 0.222222 0
0.600000 0.222222 0
0.700000 0.222222 0
0.800000 0.222222 0
0.900000 0.222222 0
1.000000 0.222222 0
1.100000 0.222222 0
1.200000 0.222222 0
1.300000 0.222222 0
1.400000 0.222222 0
1.500000 0.222222 0
1.600000 0.222222 0
1.700000 0.222222 0
1.800000 0.222222 0
1.900000 0.222222 0
2.000000 0.222222 0
2.100000 0.222222 0
2.200000 0.222222 0
2.300000 0.222222 0
2.400000 0.222222 0
2.500000 0.222222 0
2.600000 0.222222 0
2.700000 0.222222 0
2.800000 0.222222 0
2.900000 0.222222 0
3.000000 0.222222 0
3.100000 0.222222 0
3.200000 0.222222 0
3.300000 0.222222 0
3.400000 0.222222 0
3.500000 0.222222 0
3.600000 0.222222 0
3.700000 0.222222 0
3.800000 0.222222 0
3.900000 0.222222 0
4.000000 0.222222 0
4.100000 0.222222 0
4.200000 0.222222 0
4.300000 0.222222 0
4.400000 0.222222 0
4.500000 0.222222 0
4.600000 0.222222 0
4.700000 0.222222 0
4.800000 0.222222 0
4.900000 0.222222 0
5.000000 0.222222 0
5.100000 0.222222 0
5.200000 0.222222 0
5.300000 0.222222 0
5.400000 0.222222 0
5.500000 0.222222 0
5.600000 0.222222 0
5.700000 0.222222 0
5.800000 0.222222 0
5.900000 0.222222 0
6.000000 0.222222 0
6.100000 0.222222 0
6.200000 0.222222 0
6.300000 0.222222 0
6.400000 0.222222 0
6.500000 0.222222 0
6.600000 0.222222 0
6.700000 0.222222 0
6.800000 0.222222 0
6.900000 0.222222 0
7.000000 0.222222 0
7.100000 0.222222 0
7.200000 0.222222 0
7.300000 0.222222 0
7.400000 0.222222 0
7.500000 0.222222 0
7.600000 0.222222 0
7.700000 0.222222 0
7.800000 0.222222 0
7.900000 0.222222 0
8.000000 0.222222 0
8.100000 0.222222 0
8.200000 0.222222 0
8.300000 0.222222 0
8.400000 0.222222 0
8.500000 0.222222 0
0.000000 0.277778 0
0.100000 0.277778 0
0.200000 0.277778 0
0.300000 0.277778 0
0.400000 0.277778 0
0.500000 0.277778 0
0.600000 0.277778 0
0.700000 0.277778 0
0.800000 0.277778 0
0.900000 0.277778 0
1.000000 0.277778 0
1.100000 0.277778 0
1.200000 0.277778 0
1.300000 0.277778 0
1.400000 0.277778 0
1.500000 0.277778 0
1.600000 0.277778 0
1.700000 0.277778 0
1.800000 0.277778 0
1.900000 0.277778 0
2.000000 0.277778 0
2.100000 0.277778 0
2.200000 0.277778 0
2.300000 0.277778 0
2.400000 0.277778 0
2.500000 0.277778 0
2.600000 0.277778 0
2.700000 0.277778 0
2.800000 0.277778 0
2.900000 0.277778 0
3.000000 0.277778 0
3.100000 0.277778 0
3.200000 0.277778 0
3.300000 0.277778 0
3.400000 0.277778 0
3.500000 0.277778 0
3.600000 0.277778 0
3.700000 0.277778 0
3.800000 0.277778 0
3.900000 0.277778 0
4.000000 0.277778 0
4.100000 0.277778 0
4.200000 0.277778 0
4.300000 0.277778 0
4.400000 0.277778 0
4.500000 0.277778 0
4.600000 0.277778 0
4.700000 0.277778 0
4.800000 0.277778 0
4.900000 0.277778 0
5.000000 0.277778 0
5.100000 0.277778 0
5.200000 0.277778 0
5.300000 0.277778 0
5.400000 0.277778 0
5.500000 0.277778 0
5.600000 0.277778 0
5.700000 0.277778 0
5.800000 0.277778 0
5.900000 0.277778 0
6.000000 0.277778 0
[...]
POINT_DATA 1634 

VECTORS velocity float
0.000000 0.000000 0
-0.000025 0.000000 0
-0.000052 0.000000 0
-0.000066 0.000000 0
-0.000064 0.000000 0
-0.000048 0.000000 0
-0.000021 0.000000 0
0.000011 0.000000 0
0.000040 0.000000 0
0.000060 0.000000 0
0.000071 0.000000 0
0.000070 0.000000 0
0.000051 0.000000 0
0.000012 0.000000 0
-0.000034 0.000000 0
-0.000064 0.000000 0
-0.000075 0.000000 0
-0.000068 0.000000 0
-0.000049 0.000000 0
-0.000021 0.000000 0
0.000013 0.000000 0
0.000044 0.000000 0
0.000067 0.000000 0
0.000078 0.000000 0
0.000075 0.000000 0
0.000059 0.000000 0
0.000033 0.000000 0
0.000003 0.000000 0
-0.000021 0.000000 0
-0.000034 0.000000 0
-0.000037 0.000000 0
-0.000031 0.000000 0
-0.000020 0.000000 0
-0.000007 0.000000 0
0.000004 0.000000 0
0.000010 0.000000 0
0.000011 0.000000 0
0.000000 0.000000 0
0.000000 0.000000 0
0.000000 0.000000 0
0.000000 0.000000 0
0.000000 0.000000 0
-0.000000 0.000000 0
-0.000000 0.000000 0
-0.000000 0.000000 0
0.000000 0.000000 0
0.000000 0.000000 0
0.000000 0.000000 0
0.000000 0.000000 0
0.000000 0.000000 0
-0.000000 0.000000 0
-0.000000 0.000000 0
-0.000000 0.000000 0
-0.000000 0.000000 0
-0.000000 0.000000 0
-0.000000 0.000000 0
-0.000000 0.000000 0
0.000000 0.000000 0
0.000000 0.000000 0
0.000000 0.000000 0
0.000000 0.000000 0
0.000000 0.000000 0
0.000000 0.000000 0
0.000000 0.000000 0
0.000000 0.000000 0
-0.000000 0.000000 0
-0.000000 0.000000 0
-0.000000 0.000000 0
-0.000000 0.000000 0
-0.000000 0.000000 0
-0.000000 0.000000 0
0.000000 0.000000 0
0.000000 0.000000 0
0.000000 0.000000 0
0.000000 0.000000 0
0.000000 0.000000 0
0.000000 0.000000 0
0.000000 0.000000 0
-0.000000 0.000000 0
-0.000000 0.000000 0
-0.000000 0.000000 0
-0.000000 0.000000 0
-0.000000 0.000000 0
-0.000000 0.000000 0
0.000000 0.000000 0
0.000000 0.000000 0
0.000000 0.000014 0
-0.000063 0.000029 0
-0.000130 0.000023 0
-0.000165 0.000006 0
-0.000159 -0.000010 0
-0.000119 -0.000024 0
-0.000052 -0.000033 0
0.000030 -0.000034 0
0.000102 -0.000027 0
0.000153 -0.000018 0
0.000180 -0.000006 0
0.000175 0.000011 0
0.000125 0.000033 0
0.000027 0.000047 0
-0.000085 0.000042 0
-0.000162 0.000023 0
-0.000190 0.000002 0
-0.000175 -0.000014 0
-0.000127 -0.000026 0
-0.000055 -0.000034 0
0.000031 -0.000036 0
0.000111 -0.000030 0
0.000170 -0.000019 0
0.000198 -0.000005 0
0.000191 0.000011 0
0.000150 0.000023 0
0.000084 0.000031 0
0.000009 0.000030 0
-0.000052 0.000021 0
-0.000088 0.000009 0
-0.000096 -0.000002 0
-0.000081 -0.000010 0
-0.000052 -0.000013 0
-0.000020 -0.000013 0
0.000007 -0.000009 0
0.000025 -0.000004 0
0.000030 0.000001 0
0.000025 0.000003 0
0.000017 0.000003 0
0.000009 0.000003 0
0.000002 0.000002 0
-0.000002 0.000001 0
-0.000003 -0.000000 0
-0.000002 -0.000001 0
-0.000000 -0.000001 0
0.000002 -0.000001 0
0.000003 -0.000000 0
0.000003 0.000000 0
0.000003 0.000000 0
0.000001 0.000001 0
-0.000001 0.000001 0
-0.000002 0.000000 0
-0.000003 0.000000 0
-0.000003 -0.000000 0
-0.000003 -0.000000 0
-0.000002 -0.000000 0
-0.000001 -0.000000 0
0.000000 -0.000000 0
0.000001 -0.000000 0
0.000001 -0.000000 0
0.000001 0.000000 0
0.000001 0.000000 0
0.000001 0.000000 0
0.000000 0.000000 0
0.000000 0.000000 0
-0.000000 0.000000 0
-0.000000 0.000000 0
-0.000000 -0.000000 0
-0.000000 -0.000000 0
-0.000000 -0.000000 0
-0.000000 -0.000000 0
-0.000000 -0.000000 0
0.000000 -0.000000 0
0.000000 -0.000000 0
0.000000 -0.000000 0
0.000000 0.000000 0
0.000000 0.000000 0
0.000000 0.000000 0
0.000000 0.000000 0
-0.000000 0.000000 0
-0.000000 0.000000 0
-0.000000 -0.000000 0
-0.000000 -0.000000 0
-0.000000 -0.000000 0
-0.000000 -0.000000 0
0.000000 -0.000000 0
0.000000 0.000035 0
-0.000079 0.000072 0
-0.000161 0.000057 0
-0.000205 0.000016 0
-0.000200 -0.000025 0
-0.000149 -0.000060 0
-0.000062 -0.000083 0
0.000042 -0.000085 0
0.000135 -0.000069 0
0.000199 -0.000043 0
0.000230 -0.000012 0
0.000219 0.000031 0
0.000152 0.000082 0
0.000029 0.000117 0
-0.000110 0.000105 0
-0.000208 0.000058 0
-0.000245 0.000007 0
-0.000229 -0.000035 0
-0.000169 -0.000067 0
-0.000076 -0.000088 0
0.000036 -0.000092 0
0.000141 -0.000077 0
0.000219 -0.000048 0
0.000256 -0.000012 0
0.000248 0.000027 0
0.000194 0.000060 0
0.000108 0.000078 0
0.000012 0.000075 0
-0.000069 0.000054 0
-0.000116 0.000024 0
-0.000128 -0.000004 0
-0.000110 -0.000024 0
-0.000073 -0.000034 0
-0.000031 -0.000033 0
0.000006 -0.000025 0
0.000030 -0.000013 0
0.000040 -0.000000 0
0.000038 0.000007 0
0.000028 0.000009 0
0.000015 0.000008 0
0.000005 0.000006 0
-0.000002 0.000003 0
-0.000004 0.000000 0
-0.000003 -0.000002 0
-0.000000 -0.000002 0
0.000003 -0.000002 0
0.000005 -0.000001 0
0.000005 0.000000 0
0.000004 0.000001 0
0.000002 0.000002 0
-0.000001 0.000002 0
-0.000003 0.000001 0
-0.000005 0.000001 0
-0.000005 -0.000000 0
-0.000004 -0.000001 0
-0.000003 -0.000001 0
-0.000001 -0.000001 0
0.000000 -0.000001 0
0.000002 -0.000001 0
0.000002 -0.000000 0
0.000002 0.000000 0
0.000002 0.000000 0
0.000001 0.000000 0
0.000001 0.000000 0
0.000000 0.000000 0
-0.000000 0.000000 0
-0.000001 0.000000 0
-0.000001 -0.000000 0
-0.000001 -0.000000 0
-0.000000 -0.000000 0
-0.000000 -0.000000 0
-0.000000 -0.000000 0
0.000000 -0.000000 0
0.000000 -0.000000 0
0.000000 -0.000000 0
0.000000 0.000000 0
0.000000 0.000000 0
0.000000 0.000000 0
0.000000 0.000000 0
-0.000000 0.000000 0
-0.000000 0.000000 0
-0.000000 -0.000000 0
-0.000000 -0.000000 0
-0.000000 -0.000000 0
-0.000000 -0.000000 0
0.000000 -0.000000 0
0.000000 0.000058 0
-0.000077 0.000118 0
-0.000159 0.000093 0
-0.000205 0.000028 0
-0.000202 -0.000041 0
-0.000152 -0.000100 0
-0.000060 -0.000139 0
0.000051 -0.000144 0
0.000148 -0.000114 0
0.000212 -0.000070 0
0.000238 -0.000016 0
0.000220 0.000055 0
0.000147 0.000138 0
0.000023 0.000192 0
-0.000116 0.000174 0
-0.000216 0.000098 0
-0.000258 0.000014 0
-0.000244 -0.000056 0
-0.000185 -0.000111 0
-0.000088 -0.000148 0
0.000032 -0.000157 0
0.000146 -0.000132 0
0.000229 -0.000083 0
0.000268 -0.000020 0
0.000258 0.000045 0
0.000202 0.000101 0
0.000111 0.000132 0
0.000009 0.000128 0
-0.000076 0.000092 0
-0.000128 0.000042 0
-0.000141 -0.000005 0
-0.000123 -0.000040 0
-0.000084 -0.000057 0
-0.000039 -0.000057 0
0.000002 -0.000043 0
0.000030 -0.000023 0
0.000042 -0.000003 0
0.000042 0.000010 0
0.000032 0.000016 0
0.000019 0.000015 0
0.000007 0.000011 0
-0.000001 0.000006 0
-0.000004 0.000001 0
-0.000003 -0.000003 0
-0.000000 -0.000004 0
0.000003 -0.000003 0
0.000005 -0.000002 0
0.000006 0.000001 0
0.000004 0.000002 0
0.000002 0.000003 0
-0.000001 0.000003 0
-0.000004 0.000002 0
-0.000006 0.000001 0
-0.000006 -0.000000 0
-0.000005 -0.000001 0
-0.000004 -0.000002 0
-0.000002 -0.000002 0
0.000000 -0.000002 0
0.000002 -0.000001 0
0.000003 -0.000001 0
0.000003 0.000000 0
0.000002 0.000001 0
0.000002 0.000001 0
0.000001 0.000001 0
0.000000 0.000001 0
-0.000000 0.000000 0
-0.000001 0.000000 0
-0.000001 -0.000000 0
-0.000001 -0.000000 0
-0.000001 -0.000000 0
-0.000000 -0.000000 0
-0.000000 -0.000000 0
0.000000 -0.000000 0
0.000000 -0.000000 0
0.000000 -0.000000 0
0.000000 0.000000 0
0.000000 0.000000 0
0.000000 0.000000 0
0.000000 0.000000 0
-0.000000 0.000000 0
-0.000000 0.000000 0
-0.000000 -0.000000 0
-0.000000 -0.000000 0
-0.000000 -0.000000 0
-0.000000 -0.000000 0
0.000000 -0.000000 0
0.000000 0.000078 0
-0.000065 0.000161 0
-0.000137 0.000128 0
-0.000181 0.000040 0
-0.000182 -0.000055 0
-0.000137 -0.000139 0
-0.000050 -0.000195 0
0.000056 -0.000201 0
0.000147 -0.000158 0
0.000202 -0.000093 0
0.000219 -0.000016 0
0.000194 0.000081 0
0.000124 0.000192 0
0.000012 0.000263 0
-0.000110 0.000238 0
-0.000200 0.000137 0
-0.000241 0.000023 0
-0.000234 -0.000075 0
-0.000183 -0.000154 0
-0.000093 -0.000208 0
0.000022 -0.000222 0
0.000132 -0.000187 0
0.000212 -0.000116 0
0.000247 -0.000028 0
0.000237 0.000063 0
0.000183 0.000142 0
0.000097 0.000185 0
0.000003 0.000180 0
-0.000078 0.000130 0
-0.000127 0.000060 0
-0.000140 -0.000007 0
-0.000123 -0.000056 0
-0.000086 -0.000080 0
-0.000042 -0.000081 0
-0.000002 -0.000063 0
0.000026 -0.000035 0
0.000040 -0.000007 0
0.000041 0.000013 0
0.000032 0.000022 0
0.000020 0.000022 0
0.000008 0.000017 0
-0.000000 0.000009 0
-0.000003 0.000001 0
-0.000003 -0.000004 0
-0.000000 -0.000006 0
0.000003 -0.000005 0
0.000005 -0.000002 0
0.000006 0.000001 0
0.000004 0.000004 0
0.000002 0.000005 0
-0.000001 0.000005 0
-0.000004 0.000004 0
-0.000006 0.000002 0
-0.000006 -0.000000 0
-0.000005 -0.000002 0
-0.000004 -0.000003 0
-0.000002 -0.000003 0
0.000000 -0.000003 0
0.000002 -0.000002 0
0.000003 -0.000001 0
0.000003 0.000000 0
0.000002 0.000001 0
0.000002 0.000001 0
0.000001 0.000001 0
0.000000 0.000001 0
-0.000000 0.000001 0
-0.000001 0.000000 0
-0.000001 0.000000 0
-0.000001 -0.000000 0
-0.000001 -0.000000 0
-0.000000 -0.000000 0
-0.000000 -0.000000 0
0.000000 -0.000000 0
0.000000 -0.000000 0
0.000000 -0.000000 0
0.000000 0.000000 0
0.000000 0.000000 0
0.000000 0.000000 0
0.000000 0.000000 0
-0.000000 0.000000 0
-0.000000 0.000000 0
-0.000000 -0.000000 0
-0.000000 -0.000000 0
-0.000000 -0.000000 0
-0.000000 -0.000000 0
0.000000 -0.000000 0
0.000000 0.000094 0
-0.000048 0.000195 0
-0.000104 0.000157 0
-0.000142 0.000053 0
-0.000148 -0.000065 0
-0.000113 -0.000173 0
-0.000036 -0.000247 0
0.000059 -0.000253 0
0.000136 -0.000196 0
0.000178 -0.000110 0
0.000184 -0.000012 0
0.000155 0.000107 0
0.000092 0.000239 0
0.000001 0.000322 0
-0.000095 0.000292 0
-0.000168 0.000171 0
-0.000206 0.000033 0
-0.000207 -0.000089 0
-0.000169 -0.000190 0
-0.000093 -0.000262 0
0.000008 -0.000282 0
0.000107 -0.000237 0
0.000177 -0.000147 0
0.000206 -0.000034 0
0.000193 0.000081 0
0.000145 0.000178 0
0.000073 0.000232 0
-0.000007 0.000225 0
-0.000074 0.000164 0
-0.000116 0.000077 0
-0.000128 -0.000007 0
-0.000113 -0.000070 0
-0.000081 -0.000102 0
-0.000042 -0.000104 0
-0.000006 -0.000081 0
0.000020 -0.000047 0
0.000033 -0.000012 0
0.000035 0.000014 0
0.000029 0.000027 0
0.000018 0.000029 0
0.000008 0.000022 0
0.000001 0.000012 0
-0.000003 0.000002 0
-0.000002 -0.000005 0
0.000000 -0.000007 0
0.000003 -0.000006 0
0.000005 -0.000003 0
0.000005 0.000001 0
0.000004 0.000005 0
0.000002 0.000006 0
-0.000001 0.000006 0
-0.000004 0.000005 0
-0.000005 0.000002 0
-0.000006 -0.000000 0
-0.000005 -0.000003 0
-0.000003 -0.000004 0
-0.000002 -0.000004 0
0.000000 -0.000004 0
0.000001 -0.000003 0
0.000002 -0.000001 0
0.000002 0.000000 0
0.000002 0.000001 0
0.000002 0.000002 0
0.000001 0.000002 0
0.000000 0.000001 0
-0.000000 0.000001 0
-0.000001 0.000000 0
-0.000001 0.000000 0
-0.000001 -0.000000 0
-0.000001 -0.000000 0
-0.000000 -0.000001 0
-0.000000 -0.000000 0
0.000000 -0.000000 0
0.000000 -0.000000 0
0.000000 -0.000000 0
0.000000 0.000000 0
0.000000 0.000000 0
0.000000 0.000000 0
0.000000 0.000000 0
-0.000000 0.000000 0
-0.000000 0.000000 0
-0.000000 -0.000000 0
-0.000000 -0.000000 0
-0.000000 -0.000000 0
-0.000000 -0.000000 0
0.000000 -0.000000 0
0.000000 0.000104 0
-0.000028 0.000219 0
-0.000067 0.000180 0
-0.000098 0.000065 0
-0.000108 -0.000072 0
-0.000083 -0.000201 0
-0.000021 -0.000291 0
0.000058 -0.000297 0
0.000118 -0.000225 0
0.000145 -0.000119 0
0.000139 -0.000003 0
0.000109 0.000132 0
0.000058 0.000277 0
-0.000008 0.000367 0
-0.000074 0.000332 0
-0.000127 0.000199 0
-0.000160 0.000044 0
-0.000168 -0.000096 0
-0.000145 -0.000217 0
-0.000088 -0.000307 0
-0.000006 -0.000333 0
0.000075 -0.000280 0
0.000130 -0.000171 0
0.000151 -0.000038 0
0.000138 0.000097 0
0.000099 0.000209 0
0.000043 0.000270 0
-0.000017 0.000261 0
-0.000067 0.000191 0
-0.000098 0.000090 0
-0.000106 -0.000008 0
-0.000095 -0.000082 0
-0.000069 -0.000120 0
-0.000038 -0.000123 0
-0.000009 -0.000097 0
0.000013 -0.000057 0
0.000025 -0.000016 0
0.000027 0.000015 0
0.000023 0.000032 0
0.000015 0.000034 0
0.000007 0.000027 0
0.000001 0.000015 0
-0.000002 0.000003 0
-0.000002 -0.000005 0
0.000000 -0.000009 0
0.000002 -0.000008 0
0.000004 -0.000004 0
0.000004 0.000001 0
0.000003 0.000005 0
0.000001 0.000008 0
-0.000001 0.000008 0
-0.000003 0.000006 0
-0.000004 0.000003 0
-0.000005 -0.000000 0
-0.000004 -0.000003 0
-0.000003 -0.000005 0
-0.000001 -0.000005 0
-0.000000 -0.000005 0
0.000001 -0.000003 0
0.000002 -0.000001 0
0.000002 0.000000 0
0.000002 0.000001 0
0.000001 0.000002 0
0.000001 0.000002 0
0.000000 0.000002 0
-0.000000 0.000001 0
-0.000000 0.000001 0
-0.000001 0.000000 0
-0.000001 -0.000000 0
-0.000000 -0.000001 0
-0.000000 -0.000001 0
-0.000000 -0.000001 0
0.000000 -0.000000 0
0.000000 -0.000000 0
0.000000 -0.000000 0
0.000000 0.000000 0
0.000000 0.000000 0
0.000000 0.000000 0
0.000000 0.000000 0
-0.000000 0.000000 0
-0.000000 0.000000 0
-0.000000 -0.000000 0
-0.000000 -0.000000 0
-0.000000 -0.000000 0
-0.000000 -0.000000 0
0.000000 -0.000000 0
0.000000 0.000109 0
-0.000009 0.000232 0
-0.000029 0.000196 0
-0.000053 0.000076 0
-0.000065 -0.000074 0
-0.000051 -0.000221 0
-0.000005 -0.000325 0
0.000053 -0.000331 0
0.000094 -0.000244 0
0.000105 -0.000122 0
0.000090 0.000008 0
0.000061 0.000153 0
0.000024 0.000304 0
-0.000014 0.000395 0
-0.000049 0.000358 0
-0.000081 0.000219 0
-0.000107 0.000056 0
-0.000121 -0.000097 0
-0.000114 -0.000234 0
-0.000078 -0.000339 0
-0.000020 -0.000372 0
0.000040 -0.000313 0
0.000078 -0.000189 0
0.000090 -0.000038 0
0.000077 0.000110 0
0.000048 0.000231 0
0.000012 0.000296 0
-0.000025 0.000286 0
-0.000055 0.000209 0
-0.000073 0.000099 0
-0.000079 -0.000009 0
-0.000070 -0.000090 0
-0.000052 -0.000134 0
-0.000030 -0.000137 0
-0.000009 -0.000110 0
0.000006 -0.000065 0
0.000015 -0.000020 0
0.000018 0.000015 0
0.000015 0.000034 0
0.000010 0.000038 0
0.000005 0.000030 0
0.000001 0.000017 0
-0.000001 0.000004 0
-0.000001 -0.000006 0
0.000000 -0.000010 0
0.000002 -0.000008 0
0.000003 -0.000004 0
0.000003 0.000001 0
0.000002 0.000006 0
0.000001 0.000009 0
-0.000001 0.000009 0
-0.000002 0.000007 0
-0.000003 0.000003 0
-0.000003 -0.000000 0
-0.000003 -0.000004 0
-0.000002 -0.000005 0
-0.000001 -0.000006 0
-0.000000 -0.000005 0
0.000001 -0.000004 0
0.000001 -0.000002 0
0.000001 0.000000 0
0.000001 0.000002 0
0.000001 0.000002 0
0.000001 0.000002 0
0.000000 0.000002 0
-0.000000 0.000001 0
-0.000000 0.000001 0
-0.000000 0.000000 0
-0.000000 -0.000000 0
-0.000000 -0.000001 0
-0.000000 -0.000001 0
-0.000000 -0.000001 0
0.000000 -0.000001 0
0.000000 -0.000000 0
0.000000 -0.000000 0
0.000000 0.000000 0
0.000000 0.000000 0
0.000000 0.000000 0
0.000000 0.000000 0
-0.000000 0.000000 0
-0.000000 0.000000 0
-0.000000 -0.000000 0
-0.000000 -0.000000 0
-0.000000 -0.000000 0
-0.000000 -0.000000 0
0.000000 -0.000000 0
0.000000 0.000109 0
0.000009 0.000235 0
0.000006 0.000205 0
-0.000008 0.000085 0
-0.000022 -0.000073 0
-0.000018 -0.000234 0
0.000009 -0.000348 0
0.000045 -0.000352 0
0.000064 -0.000253 0
0.000060 -0.000117 0
0.000039 0.000021 0
0.000013 0.000169 0
-0.000007 0.000319 0
-0.000017 0.000407 0
-0.000022 0.000369 0
-0.000032 0.000231 0
-0.000050 0.000066 0
-0.000068 -0.000092 0
-0.000076 -0.000241 0
-0.000063 -0.000359 0
-0.000031 -0.000398 0
0.000004 -0.000335 0
0.000024 -0.000199 0
0.000026 -0.000037 0
0.000015 0.000120 0
-0.000002 0.000245 0
-0.000017 0.000310 0
-0.000030 0.000298 0
-0.000039 0.000218 0
-0.000044 0.000103 0
-0.000045 -0.000010 0
-0.000041 -0.000096 0
-0.000031 -0.000142 0
-0.000019 -0.000147 0
-0.000008 -0.000118 0
0.000000 -0.000071 0
0.000005 -0.000022 0
0.000007 0.000015 0
0.000007 0.000036 0
0.000005 0.000040 0
0.000002 0.000032 0
0.000000 0.000018 0
-0.000001 0.000004 0
-0.000001 -0.000006 0
0.000000 -0.000010 0
0.000001 -0.000009 0
0.000001 -0.000004 0
0.000001 0.000002 0
0.000001 0.000007 0
0.000000 0.000009 0
-0.000000 0.000009 0
-0.000001 0.000007 0
-0.000002 0.000004 0
-0.000002 -0.000000 0
-0.000001 -0.000004 0
-0.000001 -0.000006 0
-0.000001 -0.000006 0
-0.000000 -0.000006 0
0.000000 -0.000004 0
0.000001 -0.000002 0
0.000001 0.000000 0
0.000001 0.000002 0
0.000000 0.000002 0
0.000000 0.000003 0
0.000000 0.000002 0
-0.000000 0.000001 0
-0.000000 0.000001 0
-0.000000 0.000000 0
-0.000000 -0.000000 0
-0.000000 -0.000001 0
-0.000000 -0.000001 0
-0.000000 -0.000001 0
0.000000 -0.000001 0
0.000000 -0.000000 0
0.000000 -0.000000 0
0.000000 0.000000 0
0.000000 0.000000 0
0.000000 0.000000 0
0.000000 0.000000 0
-0.000000 0.000000 0
-0.000000 0.000000 0
-0.000000 -0.000000 0
-0.000000 -0.000000 0
-0.000000 -0.000000 0
-0.000000 -0.000000 0
0.000000 -0.000000 0
0.000000 0.000104 0
0.000024 0.000228 0
0.000038 0.000206 0
0.000034 0.000091 0
0.000021 -0.000068 0
0.000014 -0.000239 0
0.000021 -0.000360 0
0.000032 -0.000361 0
0.000029 -0.000252 0
0.000012 -0.000108 0
-0.000012 0.000034 0
-0.000032 0.000179 0
-0.000035 0.000321 0
-0.000018 0.000403 0
0.000006 0.000366 0
0.000017 0.000235 0
0.000009 0.000076 0
-0.000011 -0.000083 0
-0.000031 -0.000237 0
-0.000041 -0.000364 0
-0.000037 -0.000409 0
-0.000030 -0.000344 0
-0.000029 -0.000201 0
-0.000036 -0.000033 0
-0.000044 0.000125 0
-0.000047 0.000249 0
-0.000041 0.000312 0
-0.000030 0.000298 0
-0.000019 0.000217 0
-0.000012 0.000103 0
-0.000008 -0.000011 0
-0.000007 -0.000098 0
-0.000007 -0.000145 0
-0.000007 -0.000150 0
-0.000006 -0.000121 0
-0.000005 -0.000073 0
-0.000004 -0.000024 0
-0.000003 0.000015 0
-0.000002 0.000036 0
-0.000001 0.000040 0
-0.000001 0.000032 0
-0.000000 0.000018 0
-0.000000 0.000004 0
-0.000000 -0.000006 0
-0.000000 -0.000010 0
-0.000000 -0.000009 0
0.000000 -0.000004 0
0.000000 0.000002 0
0.000000 0.000007 0
-0.000000 0.000010 0
-0.000000 0.000010 0
-0.000000 0.000007 0
-0.000000 0.000004 0
-0.000000 -0.000000 0
-0.000000 -0.000004 0
-0.000000 -0.000006 0
-0.000000 -0.000007 0
-0.000000 -0.000006 0
-0.000000 -0.000004 0
-0.000000 -0.000002 0
-0.000000 0.000000 0
-0.000000 0.000002 0
-0.000000 0.000002 0
-0.000000 0.000003 0
-0.000000 0.000002 0
-0.000000 0.000002 0
-0.000000 0.000001 0
-0.000000 0.000000 0
-0.000000 -0.000000 0
-0.000000 -0.000001 0
-0.000000 -0.000001 0
-0.000000 -0.000001 0
-0.000000 -0.000001 0
-0.000000 -0.000000 0
-0.000000 -0.000000 0
0.000000 0.000000 0
0.000000 0.000000 0
0.000000 0.000000 0
-0.000000 0.000000 0
-0.000000 0.000000 0
-0.000000 0.000000 0
-0.000000 -0.000000 0
-0.000000 -0.000000 0
-0.000000 -0.000000 0
-0.000000 -0.000000 0
0.000000 -0.000000 0
0.000000 0.000096 0
0.000037 0.000214 0
0.000066 0.000200 0
0.000073 0.000094 0
0.000061 -0.000062 0
0.000045 -0.000235 0
0.000031 -0.000358 0
0.000014 -0.000357 0
-0.000010 -0.000242 0
-0.000039 -0.000094 0
-0.000064 0.000045 0
-0.000074 0.000181 0
-0.000059 0.000311 0
-0.000016 0.000384 0
0.000034 0.000350 0
0.000065 0.000230 0
0.000068 0.000082 0
0.000049 -0.000070 0
0.000018 -0.000224 0
-0.000013 -0.000355 0
-0.000039 -0.000404 0
-0.000060 -0.000339 0
-0.000079 -0.000196 0
-0.000094 -0.000028 0
-0.000098 0.000126 0
-0.000086 0.000243 0
-0.000060 0.000301 0
-0.000026 0.000285 0
0.000004 0.000207 0
0.000024 0.000098 0
0.000031 -0.000012 0
0.000028 -0.000097 0
0.000019 -0.000143 0
0.000008 -0.000147 0
-0.000003 -0.000118 0
-0.000010 -0.000072 0
-0.000013 -0.000023 0
-0.000013 0.000014 0
-0.000010 0.000035 0
-0.000007 0.000039 0
-0.000003 0.000031 0
-0.000001 0.000018 0
0.000000 0.000004 0
0.000000 -0.000006 0
-0.000000 -0.000010 0
-0.000001 -0.000009 0
-0.000001 -0.000004 0
-0.000001 0.000002 0
-0.000001 0.000007 0
-0.000000 0.000009 0
0.000000 0.000009 0
0.000001 0.000007 0
0.000001 0.000004 0
0.000002 -0.000001 0
0.000001 -0.000004 0
0.000001 -0.000006 0
0.000001 -0.000006 0
-0.000000 -0.000006 0
-0.000000 -0.000004 0
-0.000001 -0.000002 0
-0.000001 0.000000 0
-0.000001 0.000002 0
-0.000000 0.000002 0
-0.000000 0.000003 0
-0.000000 0.000002 0
0.000000 0.000001 0
0.000000 0.000001 0
0.000000 0.000000 0
0.000000 -0.000000 0
0.000000 -0.000001 0
0.000000 -0.000001 0
0.000000 -0.000001 0
-0.000000 -0.000001 0
-0.000000 -0.000000 0
-0.000000 -0.000000 0
-0.000000 0.000000 0
-0.000000 0.000000 0
-0.000000 0.000000 0
-0.000000 0.000000 0
0.000000 0.000000 0
0.000000 0.000000 0
0.000000 -0.000000 0
0.000000 -0.000000 0
0.000000 -0.000000 0
0.000000 -0.000000 0
0.000000 -0.000000 0
0.000000 0.000084 0
0.000047 0.000192 0
0.000090 0.000186 0
0.000108 0.000094 0
0.000100 -0.000053 0