# vtk DataFile Version 2.0
generated by CFD-lab course output (written by Tobias Neckel) 
ASCII

DATASET STRUCTURED_GRID
DIMENSIONS  51 51 1 
POINTS 2601 float

0.000000 0.000000 0
0.020000 0.000000 0
0.040000 0.000000 0
0.060000 0.000000 0
0.080000 0.000000 0
0.100000 0.000000 0
0.120000 0.000000 0
0.140000 0.000000 0
0.160000 0.000000 0
0.180000 0.000000 0
0.200000 0.000000 0
0.220000 0.000000 0
0.240000 0.000000 0
0.260000 0.000000 0
0.280000 0.000000 0
0.300000 0.000000 0
0.320000 0.000000 0
0.340000 0.000000 0
0.360000 0.000000 0
0.380000 0.000000 0
0.400000 0.000000 0
0.420000 0.000000 0
0.440000 0.000000 0
0.460000 0.000000 0
0.480000 0.000000 0
0.500000 0.000000 0
0.520000 0.000000 0
0.540000 0.000000 0
0.560000 0.000000 0
0.580000 0.000000 0
0.600000 0.000000 0
0.620000 0.000000 0
0.640000 0.000000 0
0.660000 0.000000 0
0.680000 0.000000 0
0.700000 0.000000 0
0.720000 0.000000 0
0.740000 0.000000 0
0.760000 0.000000 0
0.780000 0.000000 0
0.800000 0.000000 0
0.820000 0.000000 0
0.840000 0.000000 0
0.860000 0.000000 0
0.880000 0.000000 0
0.900000 0.000000 0
0.920000 0.000000 0
0.940000 0.000000 0
0.960000 0.000000 0
0.980000 0.000000 0
1.000000 0.000000 0
0.000000 0.020000 0
0.020000 0.020000 0
0.040000 0.020000 0
0.060000 0.020000 0
0.080000 0.020000 0
0.100000 0.020000 0
0.120000 0.020000 0
0.140000 0.020000 0
0.160000 0.020000 0
0.180000 0.020000 0
0.200000 0.020000 0
0.220000 0.020000 0
0.240000 0.020000 0
0.260000 0.020000 0
0.280000 0.020000 0
0.300000 0.020000 0
0.320000 0.020000 0
0.340000 0.020000 0
0.360000 0.020000 0
0.380000 0.020000 0
0.400000 0.020000 0
0.420000 0.020000 0
0.440000 0.020000 0
0.460000 0.020000 0
0.480000 0.020000 0
0.500000 0.020000 0
0.520000 0.020000 0
0.540000 0.020000 0
0.560000 0.020000 0
0.580000 0.020000 0
0.600000 0.020000 0
0.620000 0.020000 0
0.640000 0.020000 0
0.660000 0.020000 0
0.680000 0.020000 0
0.700000 0.020000 0
0.720000 0.020000 0
0.740000 0.020000 0
0.760000 0.020000 0
0.780000 0.020000 0
0.800000 0.020000 0
0.820000 0.020000 0
0.840000 0.020000 0
0.860000 0.020000 0
0.880000 0.020000 0
0.900000 0.020000 0
0.920000 0.020000 0
0.940000 0.020000 0
0.960000 0.020000 0
0.980000 0.020000 0
1.000000 0.020000 0
0.000000 0.040000 0
0.020000 0.040000 0
0.040000 0.040000 0
0.060000 0.040000 0
0.080000 0.040000 0
0.100000 0.040000 0
0.120000 0.040000 0
0.140000 0.040000 0
0.160000 0.040000 0
0.180000 0.040000 0
0.200000 0.040000 0
0.220000 0.040000 0
0.240000 0.040000 0
0.260000 0.040000 0
0.280000 0.040000 0
0.300000 0.040000 0
0.320000 0.040000 0
0.340000 0.040000 0
0.360000 0.040000 0
0.380000 0.040000 0
0.400000 0.040000 0
0.420000 0.040000 0
0.440000 0.040000 0
0.460000 0.040000 0
0.480000 0.040000 0
0.500000 0.040000 0
0.520000 0.040000 0
0.540000 0.040000 0
0.560000 0.040000 0
0.580000 0.040000 0
0.600000 0.040000 0
0.620000 0.040000 0
0.640000 0.040000 0
0.660000 0.040000 0
0.680000 0.040000 0
0.700000 0.040000 0
0.720000 0.040000 0
0.740000 0.040000 0
0.760000 0.040000 0
0.780000 0.040000 0
0.800000 0.040000 0
0.820000 0.040000 0
0.840000 0.040000 0
0.860000 0.040000 0
0.880000 0.040000 0
0.900000 0.040000 0
0.920000 0.040000 0
0.940000 0.040000 0
0.960000 0.040000 0
0.980000 0.040000 0
1.000000 0.040000 0
0.000000 0.060000 0
0.020000 0.060000 0
0.040000 0.060000 0
0.060000 0.060000 0
0.080000 0.060000 0
0.100000 0.060000 0
0.120000 0.060000 0
0.140000 0.060000 0
0.160000 0.060000 0
0.180000 0.060000 0
0.200000 0.060000 0
0.220000 0.060000 0
0.240000 0.060000 0
0.260000 0.060000 0
0.280000 0.060000 0
0.300000 0.060000 0
0.320000 0.060000 0
0.340000 0.060000 0
0.360000 0.060000 0
0.380000 0.060000 0
0.400000 0.060000 0
0.420000 0.060000 0
0.440000 0.060000 0
0.460000 0.060000 0
0.480000 0.060000 0
0.500000 0.060000 0
0.520000 0.060000 0
0.540000 0.060000 0
0.560000 0.060000 0
0.580000 0.060000 0
0.600000 0.060000 0
0.620000 0.060000 0
0.640000 0.060000 0
0.660000 0.060000 0
0.680000 0.060000 0
0.700000 0.060000 0
0.720000 0.060000 0
0.740000 0.060000 0
0.760000 0.060000 0
0.780000 0.060000 0
0.800000 0.060000 0
0.820000 0.060000 0
0.840000 0.060000 0
0.860000 0.060000 0
0.880000 0.060000 0
0.900000 0.060000 0
0.920000 0.060000 0
0.940000 0.060000 0
0.960000 0.060000 0
0.980000 0.060000 0
1.000000 0.060000 0
0.000000 0.080000 0
0.020000 0.080000 0
0.040000 0.080000 0
0.060000 0.080000 0
0.080000 0.080000 0
0.100000 0.080000 0
0.120000 0.080000 0
0.140000 0.080000 0
0.160000 0.080000 0
0.180000 0.080000 0
0.200000 0.080000 0
0.220000 0.080000 0
0.240000 0.080000 0
0.260000 0.080000 0
0.280000 0.080000 0
0.300000 0.080000 0
0.320000 0.080000 0
0.340000 0.080000 0
0.360000 0.080000 0
0.380000 0.080000 0
0.400000 0.080000 0
0.420000 0.080000 0
0.440000 0.080000 0
0.460000 0.080000 0
0.480000 0.080000 0
0.500000 0.080000 0
0.520000 0.080000 0
0.540000 0.080000 0
0.560000 0.080000 0
0.580000 0.080000 0
0.600000 0.080000 0
0.620000 0.080000 0
0.640000 0.080000 0
0.660000 0.080000 0
0.680000 0.080000 0
0.700000 0.080000 0
0.720000 0.080000 0
0.740000 0.080000 0
0.760000 0.080000 0
0.780000 0.080000 0
0.800000 0.080000 0
0.820000 0.080000 0
0.840000 0.080000 0
0.860000 0.080000 0
0.880000 0.080000 0
0.900000 0.080000 0
0.920000 0.080000 0
0.940000 0.080000 0
0.960000 0.080000 0
0.980000 0.080000 0
1.000000 0.080000 0
0.000000 0.100000 0
0.020000 0.100000 0
0.040000 0.100000 0
0.060000 0.100000 0
0.080000 0.100000 0
0.100000 0.100000 0
0.120000 0.100000 0
0.140000 0.100000 0
0.160000 0.100000 0
0.180000 0.100000 0
0.200000 0.100000 0
0.220000 0.100000 0
0.240000 0.100000 0
0.260000 0.100000 0
0.280000 0.100000 0
0.300000 0.100000 0
0.320000 0.100000 0
0.340000 0.100000 0
0.360000 0.100000 0
0.380000 0.100000 0
0.400000 0.100000 0
0.420000 0.100000 0
0.440000 0.100000 0
0.460000 0.100000 0
0.480000 0.100000 0
0.500000 0.100000 0
0.520000 0.100000 0
0.540000 0.100000 0
0.560000 0.100000 0
0.580000 0.100000 0
0.600000 0.100000 0
0.620000 0.100000 0
0.640000 0.100000 0
0.660000 0.100000 0
0.680000 0.100000 0
0.700000 0.100000 0
0.720000 0.100000 0
0.740000 0.100000 0
0.760000 0.100000 0
0.780000 0.100000 0
0.800000 0.100000 0
0.820000 0.100000 0
0.840000 0.100000 0
0.860000 0.100000 0
0.880000 0.100000 0
0.900000 0.100000 0
0.920000 0.100000 0
0.940000 0.100000 0
0.960000 0.100000 0
0.980000 0.100000 0
1.000000 0.100000 0
0.000000 0.120000 0
0.020000 0.120000 0
0.040000 0.120000 0
0.060000 0.120000 0
0.080000 0.120000 0
0.100000 0.120000 0
0.120000 0.120000 0
0.140000 0.120000 0
0.160000 0.120000 0
0.180000 0.120000 0
0.200000 0.120000 0
0.220000 0.120000 0
0.240000 0.120000 0
0.260000 0.120000 0
0.280000 0.120000 0
0.300000 0.120000 0
0.320000 0.120000 0
0.340000 0.120000 0
0.360000 0.120000 0
0.380000 0.120000 0
0.400000 0.120000 0
0.420000 0.120000 0
0.440000 0.120000 0
0.460000 0.120000 0
0.480000 0.120000 0
0.500000 0.120000 0
0.520000 0.120000 0
0.540000 0.120000 0
0.560000 0.120000 0
0.580000 0.120000 0
0.600000 0.120000 0
0.620000 0.120000 0
0.640000 0.120000 0
0.660000 0.120000 0
0.680000 0.120000 0
0.700000 0.120000 0
0.720000 0.120000 0
0.740000 0.120000 0
0.760000 0.120000 0
0.780000 0.120000 0
0.800000 0.120000 0
0.820000 0.120000 0
0.840000 0.120000 0
0.860000 0.120000 0
0.880000 0.120000 0
0.900000 0.120000 0
0.920000 0.120000 0
0.940000 0.120000 0
0.960000 0.120000 0
0.980000 0.120000 0
1.000000 0.120000 0
0.000000 0.140000 0
0.020000 0.140000 0
0.040000 0.140000 0
0.060000 0.140000 0
0.080000 0.140000 0
0.100000 0.140000 0
0.120000 0.140000 0
0.140000 0.140000 0
0.160000 0.140000 0
0.180000 0.140000 0
0.200000 0.140000 0
0.220000 0.140000 0
0.240000 0.140000 0
0.260000 0.140000 0
0.280000 0.140000 0
0.300000 0.140000 0
0.320000 0.140000 0
0.340000 0.140000 0
0.360000 0.140000 0
0.380000 0.140000 0
0.400000 0.140000 0
0.420000 0.140000 0
0.440000 0.140000 0
0.460000 0.140000 0
0.480000 0.140000 0
0.500000 0.140000 0
0.520000 0.140000 0
0.540000 0.140000 0
0.560000 0.140000 0
0.580000 0.140000 0
0.600000 0.140000 0
0.620000 0.140000 0
0.640000 0.140000 0
0.660000 0.140000 0
0.680000 0.140000 0
0.700000 0.140000 0
0.720000 0.140000 0
0.740000 0.140000 0
0.760000 0.140000 0
0.780000 0.140000 0
0.800000 0.140000 0
0.820000 0.140000 0
0.840000 0.140000 0
0.860000 0.140000 0
0.880000 0.140000 0
0.900000 0.140000 0
0.920000 0.140000 0
0.940000 0.140000 0
0.960000 0.140000 0
0.980000 0.140000 0
1.000000 0.140000 0
0.000000 0.160000 0
0.020000 0.160000 0
0.040000 0.160000 0
0.060000 0.160000 0
0.080000 0.160000 0
0.100000 0.160000 0
0.120000 0.160000 0
0.140000 0.160000 0
0.160000 0.160000 0
0.180000 0.160000 0
0.200000 0.160000 0
0.220000 0.160000 0
0.240000 0.160000 0
0.260000 0.160000 0
0.280000 0.160000 0
0.300000 0.160000 0
0.320000 0.160000 0
0.340000 0.160000 0
0.360000 0.160000 0
0.380000 0.160000 0
0.400000 0.160000 0
0.420000 0.160000 0
0.440000 0.160000 0
0.460000 0.160000 0
0.480000 0.160000 0
0.500000 0.160000 0
0.520000 0.160000 0
0.540000 0.160000 0
0.560000 0.160000 0
0.580000 0.160000 0
0.600000 0.160000 0
0.620000 0.160000 0
0.640000 0.160000 0
0.660000 0.160000 0
0.680000 0.160000 0
0.700000 0.160000 0
0.720000 0.160000 0
0.740000 0.160000 0
0.760000 0.160000 0
0.780000 0.160000 0
0.800000 0.160000 0
0.820000 0.160000 0
0.840000 0.160000 0
0.860000 0.160000 0
0.880000 0.160000 0
0.900000 0.160000 0
0.920000 0.160000 0
0.940000 0.160000 0
0.960000 0.160000 0
0.980000 0.160000 0
1.000000 0.160000 0
0.000000 0.180000 0
0.020000 0.180000 0
0.040000 0.180000 0
0.060000 0.180000 0
0.080000 0.180000 0
0.100000 0.180000 0
0.120000 0.180000 0
0.140000 0.180000 0
0.160000 0.180000 0
0.180000 0.180000 0
0.200000 0.180000 0
0.220000 0.180000 0
0.240000 0.180000 0
0.260000 0.180000 0
0.280000 0.180000 0
0.300000 0.180000 0
0.320000 0.180000 0
0.340000 0.180000 0
0.360000 0.180000 0
0.380000 0.180000 0
0.400000 0.180000 0
0.420000 0.180000 0
0.440000 0.180000 0
0.460000 0.180000 0
0.480000 0.180000 0
0.500000 0.180000 0
0.520000 0.180000 0
0.540000 0.180000 0
0.560000 0.180000 0
0.580000 0.180000 0
0.600000 0.180000 0
0.620000 0.180000 0
[...]
POINT_DATA 2601 

VECTORS velocity float
0.000000 0.000000 0
0.000000 0.000000 0
-0.000000 0.000000 0
-0.000000 0.000000 0
-0.000000 0.000000 0
-0.000000 0.000000 0
-0.000000 0.000000 0
-0.000000 0.000000 0
-0.000000 0.000000 0
-0.000000 0.000000 0
-0.000000 0.000000 0
-0.000000 0.000000 0
-0.000000 0.000000 0
-0.000000 0.000000 0
-0.000000 0.000000 0
-0.000000 0.000000 0
-0.000000 0.000000 0
-0.000000 0.000000 0
-0.000000 0.000000 0
-0.000000 0.000000 0
-0.000000 0.000000 0
-0.000000 0.000000 0
-0.000000 0.000000 0
0.000000 0.000000 0
0.000000 0.000000 0
0.000000 0.000000 0
0.000000 0.000000 0
-0.000000 0.000000 0
-0.000000 0.000000 0
-0.000000 0.000000 0
-0.000000 0.000000 0
-0.000000 0.000000 0
-0.000000 0.000000 0
-0.000000 0.000000 0
-0.000000 0.000000 0
-0.000000 0.000000 0
-0.000000 0.000000 0
-0.000000 0.000000 0
-0.000000 0.000000 0
-0.000000 0.000000 0
-0.000000 0.000000 0
-0.000000 0.000000 0
-0.000000 0.000000 0
-0.000000 0.000000 0
-0.000000 0.000000 0
-0.000000 0.000000 0
-0.000000 0.000000 0
-0.000000 0.000000 0
-0.000000 0.000000 0
0.000000 0.000000 0
0.000000 0.000000 0
0.000000 0.000000 0
-0.000010 0.000009 0
-0.000022 0.000008 0
-0.000032 0.000004 0
-0.000037 0.000001 0
-0.000038 -0.000001 0
-0.000036 -0.000002 0
-0.000033 -0.000002 0
-0.000030 -0.000002 0
-0.000027 -0.000002 0
-0.000025 -0.000002 0
-0.000022 -0.000001 0
-0.000020 -0.000001 0
-0.000018 -0.000001 0
-0.000016 -0.000001 0
-0.000014 -0.000001 0
-0.000013 -0.000001 0
-0.000012 -0.000001 0
-0.000010 -0.000001 0
-0.000009 -0.000001 0
-0.000008 -0.000001 0
-0.000007 -0.000000 0
-0.000006 -0.000000 0
-0.000006 -0.000000 0
-0.000005 -0.000000 0
-0.000004 -0.000000 0
-0.000004 -0.000000 0
-0.000003 -0.000000 0
-0.000002 -0.000000 0
-0.000002 -0.000000 0
-0.000001 -0.000000 0
-0.000001 -0.000000 0
-0.000000 -0.000000 0
0.000000 -0.000000 0
0.000001 -0.000000 0
0.000001 -0.000000 0
0.000002 -0.000000 0
0.000002 -0.000000 0
0.000002 -0.000000 0
0.000002 -0.000000 0
0.000002 0.000000 0
0.000002 0.000000 0
0.000002 0.000000 0
0.000002 0.000000 0
0.000001 0.000000 0
0.000001 0.000000 0
0.000000 0.000000 0
0.000000 0.000000 0
0.000000 0.000000 0
-0.000000 -0.000000 0
0.000000 -0.000000 0
0.000000 -0.000000 0
-0.000011 0.000023 0
-0.000027 0.000022 0
-0.000041 0.000014 0
-0.000051 0.000006 0
-0.000055 -0.000001 0
-0.000055 -0.000004 0
-0.000053 -0.000006 0
-0.000050 -0.000006 0
-0.000046 -0.000006 0
-0.000042 -0.000005 0
-0.000039 -0.000005 0
-0.000035 -0.000004 0
-0.000032 -0.000004 0
-0.000029 -0.000003 0
-0.000026 -0.000003 0
-0.000023 -0.000003 0
-0.000021 -0.000003 0
-0.000019 -0.000002 0
-0.000017 -0.000002 0
-0.000015 -0.000002 0
-0.000013 -0.000002 0
-0.000012 -0.000002 0
-0.000010 -0.000001 0
-0.000009 -0.000001 0
-0.000007 -0.000001 0
-0.000006 -0.000001 0
-0.000005 -0.000001 0
-0.000004 -0.000001 0
-0.000003 -0.000001 0
-0.000002 -0.000001 0
-0.000001 -0.000001 0
0.000000 -0.000001 0
0.000001 -0.000001 0
0.000002 -0.000001 0
0.000003 -0.000001 0
0.000003 -0.000001 0
0.000004 -0.000000 0
0.000004 -0.000000 0
0.000004 -0.000000 0
0.000004 0.000000 0
0.000004 0.000000 0
0.000004 0.000001 0
0.000003 0.000001 0
0.000002 0.000001 0
0.000002 0.000001 0
0.000001 0.000001 0
0.000001 0.000000 0
0.000000 0.000000 0
0.000000 0.000000 0
0.000000 -0.000000 0
0.000000 0.000000 0
-0.000009 0.000036 0
-0.000025 0.000039 0
-0.000041 0.000027 0
-0.000053 0.000014 0
-0.000060 0.000003 0
-0.000063 -0.000004 0
-0.000063 -0.000008 0
-0.000061 -0.000009 0
-0.000057 -0.000010 0
-0.000054 -0.000009 0
-0.000050 -0.000009 0
-0.000046 -0.000008 0
-0.000042 -0.000007 0
-0.000038 -0.000007 0
-0.000035 -0.000006 0
-0.000031 -0.000006 0
-0.000028 -0.000005 0
-0.000025 -0.000005 0
-0.000023 -0.000004 0
-0.000020 -0.000004 0
-0.000018 -0.000004 0
-0.000016 -0.000003 0
-0.000014 -0.000003 0
-0.000012 -0.000003 0
-0.000010 -0.000003 0
-0.000008 -0.000003 0
-0.000007 -0.000003 0
-0.000005 -0.000003 0
-0.000004 -0.000002 0
-0.000002 -0.000002 0
-0.000001 -0.000002 0
0.000001 -0.000002 0
0.000002 -0.000002 0
0.000003 -0.000002 0
0.000004 -0.000002 0
0.000005 -0.000001 0
0.000006 -0.000001 0
0.000006 -0.000001 0
0.000006 -0.000000 0
0.000006 0.000000 0
0.000006 0.000001 0
0.000005 0.000001 0
0.000005 0.000001 0
0.000004 0.000002 0
0.000003 0.000002 0
0.000002 0.000001 0
0.000001 0.000001 0
0.000000 0.000001 0
0.000000 0.000000 0
0.000000 -0.000000 0
0.000000 0.000000 0
-0.000007 0.000048 0
-0.000021 0.000054 0
-0.000037 0.000042 0
-0.000049 0.000024 0
-0.000058 0.000009 0
-0.000064 -0.000001 0
-0.000066 -0.000008 0
-0.000065 -0.000011 0
-0.000063 -0.000013 0
-0.000060 -0.000013 0
-0.000057 -0.000013 0
-0.000053 -0.000012 0
-0.000049 -0.000011 0
-0.000045 -0.000011 0
-0.000041 -0.000010 0
-0.000037 -0.000009 0
-0.000034 -0.000009 0
-0.000030 -0.000008 0
-0.000027 -0.000007 0
-0.000024 -0.000007 0
-0.000021 -0.000006 0
-0.000019 -0.000006 0
-0.000016 -0.000005 0
-0.000014 -0.000005 0
-0.000012 -0.000005 0
-0.000010 -0.000005 0
-0.000008 -0.000004 0
-0.000006 -0.000004 0
-0.000004 -0.000004 0
-0.000002 -0.000004 0
-0.000001 -0.000004 0
0.000001 -0.000004 0
0.000003 -0.000003 0
0.000004 -0.000003 0
0.000005 -0.000003 0
0.000006 -0.000002 0
0.000007 -0.000002 0
0.000008 -0.000001 0
0.000008 -0.000000 0
0.000008 0.000001 0
0.000007 0.000001 0
0.000007 0.000002 0
0.000006 0.000002 0
0.000005 0.000003 0
0.000004 0.000003 0
0.000002 0.000002 0
0.000001 0.000002 0
0.000001 0.000001 0
0.000000 0.000000 0
0.000000 -0.000000 0
0.000000 0.000000 0
-0.000006 0.000058 0
-0.000018 0.000068 0
-0.000031 0.000055 0
-0.000044 0.000036 0
-0.000054 0.000017 0
-0.000061 0.000003 0
-0.000064 -0.000006 0
-0.000065 -0.000012 0
-0.000065 -0.000014 0
-0.000063 -0.000016 0
-0.000060 -0.000016 0
-0.000057 -0.000016 0
-0.000053 -0.000015 0
-0.000049 -0.000015 0
-0.000045 -0.000014 0
-0.000041 -0.000013 0
-0.000038 -0.000012 0
-0.000034 -0.000011 0
-0.000031 -0.000011 0
-0.000027 -0.000010 0
-0.000024 -0.000009 0
-0.000021 -0.000009 0
-0.000019 -0.000008 0
-0.000016 -0.000008 0
-0.000013 -0.000007 0
-0.000011 -0.000007 0
-0.000009 -0.000006 0
-0.000006 -0.000006 0
-0.000004 -0.000006 0
-0.000002 -0.000006 0
-0.000000 -0.000006 0
0.000002 -0.000005 0
0.000003 -0.000005 0
0.000005 -0.000005 0
0.000006 -0.000004 0
0.000008 -0.000003 0
0.000009 -0.000002 0
0.000009 -0.000001 0
0.000009 -0.000000 0
0.000009 0.000001 0
0.000009 0.000002 0
0.000008 0.000003 0
0.000007 0.000003 0
0.000006 0.000004 0
0.000004 0.000004 0
0.000003 0.000003 0
0.000002 0.000003 0
0.000001 0.000002 0
0.000000 0.000001 0
0.000000 -0.000000 0
0.000000 0.000000 0
-0.000004 0.000065 0
-0.000014 0.000080 0
-0.000026 0.000068 0
-0.000038 0.000047 0
-0.000048 0.000026 0
-0.000056 0.000009 0
-0.000061 -0.000003 0
-0.000063 -0.000010 0
-0.000064 -0.000015 0
-0.000063 -0.000018 0
-0.000061 -0.000019 0
-0.000058 -0.000019 0
-0.000055 -0.000019 0
-0.000052 -0.000019 0
-0.000048 -0.000018 0
-0.000044 -0.000017 0
-0.000040 -0.000016 0
-0.000037 -0.000015 0
-0.000033 -0.000014 0
-0.000029 -0.000013 0
-0.000026 -0.000012 0
-0.000023 -0.000012 0
-0.000020 -0.000011 0
-0.000017 -0.000010 0
-0.000014 -0.000010 0
-0.000012 -0.000009 0
-0.000009 -0.000009 0
-0.000007 -0.000009 0
-0.000004 -0.000008 0
-0.000002 -0.000008 0
0.000000 -0.000008 0
0.000002 -0.000007 0
0.000004 -0.000007 0
0.000006 -0.000006 0
0.000007 -0.000005 0
0.000009 -0.000004 0
0.000010 -0.000003 0
0.000010 -0.000002 0
0.000011 -0.000000 0
0.000010 0.000001 0
0.000010 0.000003 0
0.000009 0.000004 0
0.000008 0.000005 0
0.000006 0.000005 0
0.000005 0.000005 0
0.000003 0.000005 0
0.000002 0.000004 0
0.000001 0.000003 0
0.000000 0.000001 0
0.000000 -0.000000 0
0.000000 0.000000 0
-0.000004 0.000072 0
-0.000012 0.000090 0
-0.000022 0.000079 0
-0.000033 0.000058 0
-0.000042 0.000035 0
-0.000050 0.000016 0
-0.000056 0.000002 0
-0.000059 -0.000008 0
-0.000061 -0.000015 0
-0.000061 -0.000019 0
-0.000060 -0.000021 0
-0.000058 -0.000022 0
-0.000056 -0.000022 0
-0.000053 -0.000022 0
-0.000049 -0.000021 0
-0.000045 -0.000021 0
-0.000042 -0.000020 0
-0.000038 -0.000019 0
-0.000034 -0.000018 0
-0.000031 -0.000017 0
-0.000027 -0.000016 0
-0.000024 -0.000015 0
-0.000021 -0.000014 0
-0.000018 -0.000013 0
-0.000015 -0.000012 0
-0.000012 -0.000012 0
-0.000010 -0.000011 0
-0.000007 -0.000011 0
-0.000004 -0.000011 0
-0.000002 -0.000010 0
0.000000 -0.000010 0
0.000003 -0.000009 0
0.000005 -0.000009 0
0.000006 -0.000008 0
0.000008 -0.000007 0
0.000009 -0.000006 0
0.000010 -0.000004 0
0.000011 -0.000002 0
0.000011 -0.000000 0
0.000011 0.000001 0
0.000011 0.000003 0
0.000010 0.000005 0
0.000008 0.000006 0
0.000007 0.000007 0
0.000005 0.000007 0
0.000004 0.000006 0
0.000002 0.000005 0
0.000001 0.000004 0
0.000000 0.000002 0
0.000000 -0.000000 0
0.000000 0.000000 0
-0.000003 0.000077 0
-0.000010 0.000098 0
-0.000019 0.000089 0
-0.000028 0.000067 0
-0.000037 0.000043 0
-0.000045 0.000023 0
-0.000051 0.000006 0
-0.000055 -0.000005 0
-0.000057 -0.000013 0
-0.000058 -0.000019 0
-0.000058 -0.000022 0
-0.000057 -0.000024 0
-0.000055 -0.000025 0
-0.000052 -0.000025 0
-0.000049 -0.000025 0
-0.000046 -0.000024 0
-0.000042 -0.000023 0
-0.000039 -0.000022 0
-0.000035 -0.000021 0
-0.000032 -0.000020 0
-0.000028 -0.000019 0
-0.000025 -0.000018 0
-0.000022 -0.000017 0
-0.000018 -0.000016 0
-0.000015 -0.000015 0
-0.000013 -0.000015 0
-0.000010 -0.000014 0
-0.000007 -0.000014 0
-0.000004 -0.000013 0
-0.000002 -0.000013 0
0.000001 -0.000012 0
0.000003 -0.000012 0
0.000005 -0.000011 0
0.000007 -0.000010 0
0.000009 -0.000008 0
0.000010 -0.000007 0
0.000011 -0.000005 0
0.000012 -0.000003 0
0.000012 -0.000000 0
0.000012 0.000002 0
0.000011 0.000004 0
0.000010 0.000006 0
0.000009 0.000007 0
0.000007 0.000008 0
0.000006 0.000009 0
0.000004 0.000008 0
0.000002 0.000007 0
0.000001 0.000005 0
0.000000 0.000002 0
0.000000 -0.000000 0
0.000000 0.000000 0
-0.000002 0.000081 0
-0.000008 0.000106 0
-0.000016 0.000098 0
-0.000024 0.000076 0
-0.000032 0.000051 0
-0.000040 0.000029 0
-0.000046 0.000012 0
-0.000050 -0.000002 0
-0.000053 -0.000011 0
-0.000055 -0.000018 0
-0.000055 -0.000022 0
-0.000055 -0.000025 0
-0.000053 -0.000027 0
-0.000051 -0.000028 0
-0.000048 -0.000028 0
-0.000045 -0.000028 0
-0.000042 -0.000027 0
-0.000039 -0.000026 0
-0.000035 -0.000025 0
-0.000032 -0.000024 0
-0.000028 -0.000022 0
-0.000025 -0.000021 0
-0.000022 -0.000020 0
-0.000019 -0.000019 0
-0.000016 -0.000018 0
-0.000013 -0.000018 0
-0.000010 -0.000017 0
-0.000007 -0.000016 0
-0.000004 -0.000016 0
-0.000002 -0.000015 0
0.000001 -0.000015 0
0.000003 -0.000014 0
0.000005 -0.000013 0
0.000007 -0.000011 0
0.000009 -0.000010 0
0.000010 -0.000008 0
0.000011 -0.000006 0
0.000012 -0.000003 0
0.000012 -0.000000 0
0.000012 0.000002 0
0.000011 0.000005 0
0.000010 0.000007 0
0.000009 0.000009 0
0.000007 0.000010 0
0.000006 0.000010 0
0.000004 0.000010 0
0.000002 0.000008 0
0.000001 0.000006 0
0.000000 0.000003 0
0.000000 -0.000000 0
0.000000 0.000000 0
-0.000002 0.000085 0
-0.000007 0.000112 0
-0.000013 0.000105 0
-0.000021 0.000084 0
-0.000028 0.000059 0
-0.000035 0.000036 0
-0.000041 0.000017 0
-0.000046 0.000002 0
-0.000049 -0.000009 0
-0.000051 -0.000017 0
-0.000052 -0.000022 0
-0.000052 -0.000026 0
-0.000051 -0.000028 0
-0.000049 -0.000030 0
-0.000047 -0.000031 0
-0.000044 -0.000031 0
-0.000041 -0.000030 0
-0.000038 -0.000029 0
-0.000035 -0.000028 0
-0.000031 -0.000027 0
-0.000028 -0.000026 0
-0.000025 -0.000024 0
-0.000022 -0.000023 0
-0.000019 -0.000022 0
-0.000016 -0.000021 0
-0.000013 -0.000021 0
-0.000010 -0.000020 0
-0.000007 -0.000019 0
-0.000004 -0.000018 0
-0.000002 -0.000018 0
0.000001 -0.000017 0
0.000003 -0.000016 0
0.000005 -0.000015 0
0.000007 -0.000013 0
0.000009 -0.000011 0
0.000010 -0.000009 0
0.000011 -0.000007 0
0.000012 -0.000004 0
0.000012 -0.000001 0
0.000012 0.000003 0
0.000011 0.000006 0
0.000010 0.000008 0
0.000009 0.000010 0
0.000007 0.000012 0
0.000006 0.000012 0
0.000004 0.000011 0
0.000002 0.000009 0
0.000001 0.000007 0
0.000000 0.000004 0
0.000000 -0.000000 0
0.000000 0.000000 0
-0.000002 0.000088 0
-0.000006 0.000117 0
-0.000011 0.000112 0
-0.000018 0.000091 0
-0.000025 0.000066 0
-0.000031 0.000042 0
-0.000036 0.000022 0
-0.000041 0.000006 0
-0.000044 -0.000006 0
-0.000047 -0.000015 0
-0.000048 -0.000022 0
-0.000048 -0.000026 0
-0.000048 -0.000030 0
-0.000046 -0.000032 0
-0.000044 -0.000033 0
-0.000042 -0.000033 0
-0.000039 -0.000033 0
-0.000037 -0.000032 0
-0.000033 -0.000031 0
-0.000030 -0.000030 0
-0.000027 -0.000029 0
-0.000024 -0.000028 0
-0.000021 -0.000026 0
-0.000018 -0.000025 0
-0.000015 -0.000024 0
-0.000012 -0.000023 0
-0.000010 -0.000023 0
-0.000007 -0.000022 0
-0.000004 -0.000021 0
-0.000002 -0.000020 0
0.000001 -0.000019 0
0.000003 -0.000018 0
0.000005 -0.000017 0
0.000007 -0.000015 0
0.000008 -0.000013 0
0.000010 -0.000010 0
0.000011 -0.000007 0
0.000011 -0.000004 0
0.000012 -0.000001 0
0.000011 0.000003 0
0.000011 0.000006 0
0.000010 0.000009 0
0.000009 0.000012 0
0.000007 0.000013 0
0.000005 0.000014 0
0.000004 0.000013 0
0.000002 0.000011 0
0.000001 0.000008 0
0.000000 0.000004 0
0.000000 -0.000000 0
0.000000 0.000000 0
-0.000001 0.000091 0
-0.000005 0.000122 0
-0.000010 0.000118 0
-0.000015 0.000097 0
-0.000021 0.000072 0
-0.000027 0.000048 0
-0.000032 0.000027 0
-0.000037 0.000010 0
-0.000040 -0.000003 0
-0.000043 -0.000013 0
-0.000044 -0.000021 0
-0.000045 -0.000026 0
-0.000044 -0.000030 0
-0.000043 -0.000033 0
-0.000042 -0.000035 0
-0.000040 -0.000036 0
-0.000037 -0.000036 0
-0.000035 -0.000035 0
-0.000032 -0.000034 0
-0.000029 -0.000033 0
-0.000026 -0.000032 0
-0.000023 -0.000031 0
-0.000020 -0.000029 0
-0.000018 -0.000028 0
-0.000015 -0.000027 0
-0.000012 -0.000026 0
-0.000009 -0.000025 0
-0.000007 -0.000024 0
-0.000004 -0.000024 0
-0.000002 -0.000023 0
0.000001 -0.000022 0
0.000003 -0.000020 0
0.000005 -0.000019 0
0.000006 -0.000017 0
0.000008 -0.000014 0
0.000009 -0.000012 0
0.000010 -0.000008 0
0.000011 -0.000004 0
0.000011 -0.000001 0
0.000011 0.000003 0
0.000010 0.000007 0
0.000009 0.000011 0
0.000008 0.000013 0
0.000007 0.000015 0
0.000005 0.000015 0
0.000004 0.000014 0
0.000002 0.000012 0
0.000001 0.000009 0
0.000000 0.000005 0
0.000000 -0.000000 0
0.000000 0.000000 0
-0.000001 0.000093 0
-0.000004 0.000125 0
-0.000008 0.000123 0
-0.000013 0.000103 0
-0.000019 0.000078 0
-0.000024 0.000053 0
-0.000029 0.000032 0
-0.000033 0.000014 0
-0.000036 0.000000 0
-0.000039 -0.000011 0
-0.000040 -0.000020 0
-0.000041 -0.000026 0
-0.000041 -0.000031 0
-0.000040 -0.000034 0
-0.000039 -0.000036 0
-0.000037 -0.000038 0
-0.000035 -0.000038 0
-0.000033 -0.000038 0
-0.000030 -0.000037 0
-0.000028 -0.000036 0
-0.000025 -0.000035 0
-0.000022 -0.000033 0
-0.000019 -0.000032 0
-0.000017 -0.000031 0
-0.000014 -0.000030 0
-0.000012 -0.000029 0
-0.000009 -0.000028 0
-0.000007 -0.000027 0
-0.000004 -0.000026 0
-0.000002 -0.000025 0
0.000000 -0.000024 0
0.000002 -0.000022 0
0.000004 -0.000021 0
0.000006 -0.000018 0
0.000007 -0.000016 0
0.000009 -0.000013 0
0.000010 -0.000009 0
0.000010 -0.000005 0
0.000010 -0.000001 0
0.000010 0.000004 0
0.000009 0.000008 0
0.000009 0.000012 0
0.000007 0.000014 0
0.000006 0.000016 0
0.000005 0.000017 0
0.000003 0.000016 0
0.000002 0.000013 0
0.000001 0.000010 0
0.000000 0.000005 0
0.000000 -0.000000 0
0.000000 0.000000 0
-0.000001 0.000095 0
-0.000003 0.000129 0
-0.000007 0.000127 0
-0.000011 0.000108 0
-0.000016 0.000083 0
-0.000021 0.000058 0
-0.000025 0.000036 0
-0.000029 0.000018 0
-0.000032 0.000003 0
-0.000034 -0.000009 0
-0.000036 -0.000018 0
-0.000037 -0.000026 0
-0.000037 -0.000031 0
-0.000037 -0.000035 0
-0.000036 -0.000038 0
-0.000034 -0.000039 0
-0.000032 -0.000040 0
-0.000030 -0.000040 0
-0.000028 -0.000039 0
-0.000026 -0.000038 0
-0.000023 -0.000037 0
-0.000021 -0.000036 0
-0.000018 -0.000035 0
-0.000016 -0.000034 0
-0.000013 -0.000032 0
-0.000011 -0.000031 0
-0.000009 -0.000030 0
-0.000006 -0.000029 0
-0.000004 -0.000028 0
-0.000002 -0.000027 0
0.000000 -0.000026 0
0.000002 -0.000024 0
0.000004 -0.000022 0
0.000005 -0.000020 0
0.000007 -0.000017 0
0.000008 -0.000014 0
0.000009 -0.000010 0
0.000009 -0.000005 0
0.000009 -0.000001 0
0.000009 0.000004 0
0.000009 0.000009 0
0.000008 0.000013 0
0.000007 0.000016 0
0.000006 0.000018 0
0.000004 0.000018 0
0.000003 0.000017 0
0.000002 0.000014 0
0.000001 0.000011 0
0.000000 0.000006 0
0.000000 -0.000000 0
0.000000 0.000000 0
-0.000001 0.000096 0
-0.000003 0.000131 0
-0.000006 0.000131 0
-0.000010 0.000112 0
-0.000014 0.000087 0
-0.000018 0.000062 0
-0.000022 0.000040 0
-0.000025 0.000021 0
-0.000028 0.000006 0
-0.000031 -0.000007 0
-0.000032 -0.000017 0
-0.000033 -0.000025 0
-0.000033 -0.000031 0
-0.000033 -0.000036 0
-0.000032 -0.000039 0
-0.000031 -0.000041 0
-0.000030 -0.000042 0
-0.000028 -0.000042 0
-0.000026 -0.000041 0
-0.000024 -0.000041 0
-0.000022 -0.000040 0
-0.000019 -0.000038 0
-0.000017 -0.000037 0
-0.000015 -0.000036 0
-0.000012 -0.000035 0
-0.000010 -0.000034 0
-0.000008 -0.000033 0
-0.000006 -0.000032 0
-0.000004 -0.000030 0
-0.000002 -0.000029 0
0.000000 -0.000028 0
0.000002 -0.000026 0
0.000003 -0.000024 0
0.000005 -0.000021 0
0.000006 -0.000018 0
0.000007 -0.000014 0
0.000008 -0.000010 0
0.000008 -0.000005 0
0.000008 -0.000000 0
0.000008 0.000005 0
0.000008 0.000009 0
0.000007 0.000014 0
0.000006 0.000017 0
0.000005 0.000019 0
0.000004 0.000019 0
0.000003 0.000018 0
0.000002 0.000015 0
0.000001 0.000011 0
0.000000 0.000006 0
0.000000 -0.000000 0
0.000000 0.000000 0
-0.000001 0.000098 0
-0.000002 0.000134 0
-0.000005 0.000134 0
-0.000008 0.000116 0
-0.000012 0.000091 0
-0.000016 0.000066 0
-0.000019 0.000043 0
-0.000022 0.000024 0
-0.000025 0.000008 0
-0.000027 -0.000005 0
-0.000028 -0.000016 0
-0.000029 -0.000025 0
-0.000030 -0.000031 0
-0.000030 -0.000036 0
-0.000029 -0.000040 0
-0.000028 -0.000042 0
-0.000027 -0.000043 0
-0.000025 -0.000044 0
-0.000023 -0.000043 0
-0.000022 -0.000043 0
-0.000020 -0.000042 0
-0.000018 -0.000041 0
-0.000016 -0.000039 0
-0.000013 -0.000038 0
-0.000011 -0.000037 0
-0.000009 -0.000036 0
-0.000007 -0.000035 0
-0.000006 -0.000034 0
-0.000004 -0.000032 0
-0.000002 -0.000031 0
-0.000000 -0.000030 0
0.000001 -0.000028 0
0.000003 -0.000025 0
0.000004 -0.000023 0
0.000005 -0.000019 0
0.000006 -0.000015 0
0.000007 -0.000011 0
0.000007 -0.000006 0
0.000007 -0.000000 0
0.000007 0.000005 0
0.000007 0.000010 0
0.000006 0.000014 0
0.000005 0.000018 0
0.000004 0.000020 0
0.000003 0.000020 0
0.000002 0.000019 0
0.000001 0.000016 0
0.000001 0.000012 0
0.000000 0.000006 0
0.000000 -0.000000 0
0.000000 0.000000 0
-0.000001 0.000099 0
-0.000002 0.000136 0
-0.000004 0.000136 0
-0.000007 0.000119 0
-0.000010 0.000094 0
-0.000013 0.000069 0
-0.000016 0.000047 0
-0.000019 0.000027 0
-0.000021 0.000010 0
-0.000023 -0.000003 0
-0.000025 -0.000015 0
-0.000026 -0.000024 0
-0.000026 -0.000031 0
-0.000026 -0.000036 0
-0.000025 -0.000040 0
-0.000025 -0.000043 0
-0.000024 -0.000044 0
-0.000022 -0.000045 0
-0.000021 -0.000045 0
-0.000019 -0.000045 0
-0.000018 -0.000044 0
-0.000016 -0.000043 0
-0.000014 -0.000041 0
-0.000012 -0.000040 0
-0.000010 -0.000039 0
-0.000009 -0.000038 0
-0.000007 -0.000036 0
-0.000005 -0.000035 0
-0.000003 -0.000034 0
-0.000002 -0.000033 0
-0.000000 -0.000031 0
0.000001 -0.000029 0
0.000002 -0.000027 0
0.000004 -0.000024 0
0.000004 -0.000020 0
0.000005 -0.000016 0
0.000006 -0.000011 0
0.000006 -0.000006 0
0.000006 -0.000000 0
0.000006 0.000005 0
0.000006 0.000010 0
0.000005 0.000015 0
0.000005 0.000019 0
0.000004 0.000021 0
0.000003 0.000021 0
0.000002 0.000020 0
0.000001 0.000017 0
0.000001 0.000012 0
0.000000 0.000007 0
0.000000 -0.000000 0
0.000000 0.000000 0
-0.000000 0.000100 0
-0.000002 0.000138 0
-0.000004 0.000139 0
-0.000006 0.000121 0
-0.000009 0.000097 0
-0.000011 0.000072 0
-0.000014 0.000049 0
-0.000016 0.000029 0
-0.000018 0.000012 0
-0.000020 -0.000002 0
-0.000021 -0.000014 0
-0.000022 -0.000023 0
-0.000022 -0.000031 0
-0.000022 -0.000037 0
-0.000022 -0.000041 0
-0.000021 -0.000044 0
-0.000020 -0.000046 0
-0.000019 -0.000046 0
-0.000018 -0.000046 0
-0.000017 -0.000046 0
-0.000015 -0.000045 0