# vtk DataFile Version 2.0
generated by CFD-lab course output (written by Tobias Neckel) 
ASCII

DATASET STRUCTURED_GRID
DIMENSIONS  101 21 1 
POINTS 2121 float

0.000000 0.000000 0
0.100000 0.000000 0
0.200000 0.000000 0
0.300000 0.000000 0
0.400000 0.000000 0
0.500000 0.000000 0
0.600000 0.000000 0
0.700000 0.000000 0
0.800000 0.000000 0
0.900000 0.000000 0
1.000000 0.000000 0
1.100000 0.000000 0
1.200000 0.000000 0
1.300000 0.000000 0
1.400000 0.000000 0
1.500000 0.000000 0
1.600000 0.000000 0
1.700000 0.000000 0
1.800000 0.000000 0
1.900000 0.000000 0
2.000000 0.000000 0
2.100000 0.000000 0
2.200000 0.000000 0
2.300000 0.000000 0
2.400000 0.000000 0
2.500000 0.000000 0
2.600000 0.000000 0
2.700000 0.000000 0
2.800000 0.000000 0
2.900000 0.000000 0
3.000000 0.000000 0
3.100000 0.000000 0
3.200000 0.000000 0
3.300000 0.000000 0
3.400000 0.000000 0
3.500000 0.000000 0
3.600000 0.000000 0
3.700000 0.000000 0
3.800000 0.000000 0
3.900000 0.000000 0
4.000000 0.000000 0
4.100000 0.000000 0
4.200000 0.000000 0
4.300000 0.000000 0
4.400000 0.000000 0
4.500000 0.000000 0
4.600000 0.000000 0
4.700000 0.000000 0
4.800000 0.000000 0
4.900000 0.000000 0
5.000000 0.000000 0
5.100000 0.000000 0
5.200000 0.000000 0
5.300000 0.000000 0
5.400000 0.000000 0
5.500000 0.000000 0
5.600000 0.000000 0
5.700000 0.000000 0
5.800000 0.000000 0
5.900000 0.000000 0
6.000000 0.000000 0
6.100000 0.000000 0
6.200000 0.000000 0
6.300000 0.000000 0
6.400000 0.000000 0
6.500000 0.000000 0
6.600000 0.000000 0
6.700000 0.000000 0
6.800000 0.000000 0
6.900000 0.000000 0
7.000000 0.000000 0
7.100000 0.000000 0
7.200000 0.000000 0
7.300000 0.000000 0
7.400000 0.000000 0
7.500000 0.000000 0
7.600000 0.000000 0
7.700000 0.000000 0
7.800000 0.000000 0
7.900000 0.000000 0
8.000000 0.000000 0
8.100000 0.000000 0
8.200000 0.000000 0
8.300000 0.000000 0
8.400000 0.000000 0
8.500000 0.000000 0
8.600000 0.000000 0
8.700000 0.000000 0
8.800000 0.000000 0
8.900000 0.000000 0
9.000000 0.000000 0
9.100000 0.000000 0
9.200000 0.000000 0
9.300000 0.000000 0
9.400000 0.000000 0
9.500000 0.000000 0
9.600000 0.000000 0
9.700000 0.000000 0
9.800000 0.000000 0
9.900000 0.000000 0
10.000000 0.000000 0
0.000000 0.100000 0
0.100000 0.100000 0
0.200000 0.100000 0
0.300000 0.100000 0
0.400000 0.100000 0
0.500000 0.100000 0
0.600000 0.100000 0
0.700000 0.100000 0
0.800000 0.100000 0
0.900000 0.100000 0
1.000000 0.100000 0
1.100000 0.100000 0
1.200000 0.100000 0
1.300000 0.100000 0
1.400000 0.100000 0
1.500000 0.100000 0
1.600000 0.100000 0
1.700000 0.100000 0
1.800000 0.100000 0
1.900000 0.100000 0
2.000000 0.100000 0
2.100000 0.100000 0
2.200000 0.100000 0
2.300000 0.100000 0
2.400000 0.100000 0
2.500000 0.100000 0
2.600000 0.100000 0
2.700000 0.100000 0
2.800000 0.100000 0
2.900000 0.100000 0
3.000000 0.100000 0
3.100000 0.100000 0
3.200000 0.100000 0
3.300000 0.100000 0
3.400000 0.100000 0
3.500000 0.100000 0
3.600000 0.100000 0
3.700000 0.100000 0
3.800000 0.100000 0
3.900000 0.100000 0
4.000000 0.100000 0
4.100000 0.100000 0
4.200000 0.100000 0
4.300000 0.100000 0
4.400000 0.100000 0
4.500000 0.100000 0
4.600000 0.100000 0
4.700000 0.100000 0
4.800000 0.100000 0
4.900000 0.100000 0
5.000000 0.100000 0
5.100000 0.100000 0
5.200000 0.100000 0
5.300000 0.100000 0
5.400000 0.100000 0
5.500000 0.100000 0
5.600000 0.100000 0
5.700000 0.100000 0
5.800000 0.100000 0
5.900000 0.100000 0
6.000000 0.100000 0
6.100000 0.100000 0
6.200000 0.100000 0
6.300000 0.100000 0
6.400000 0.100000 0
6.500000 0.100000 0
6.600000 0.100000 0
6.700000 0.100000 0
6.800000 0.100000 0
6.900000 0.100000 0
7.000000 0.100000 0
7.100000 0.100000 0
7.200000 0.100000 0
7.300000 0.100000 0
7.400000 0.100000 0
7.500000 0.100000 0
7.600000 0.100000 0
7.700000 0.100000 0
7.800000 0.100000 0
7.900000 0.100000 0
8.000000 0.100000 0
8.100000 0.100000 0
8.200000 0.100000 0
8.300000 0.100000 0
8.400000 0.100000 0
8.500000 0.100000 0
8.600000 0.100000 0
8.700000 0.100000 0
8.800000 0.100000 0
8.900000 0.100000 0
9.000000 0.100000 0
9.100000 0.100000 0
9.200000 0.100000 0
9.300000 0.100000 0
9.400000 0.100000 0
9.500000 0.100000 0
9.600000 0.100000 0
9.700000 0.100000 0
9.800000 0.100000 0
9.900000 0.100000 0
10.000000 0.100000 0
0.000000 0.200000 0
0.100000 0.200000 0
0.200000 0.200000 0
0.300000 0.200000 0
0.400000 0.200000 0
0.500000 0.200000 0
0.600000 0.200000 0
0.700000 0.200000 0
0.800000 0.200000 0
0.900000 0.200000 0
1.000000 0.200000 0
1.100000 0.200000 0
1.200000 0.200000 0
1.300000 0.200000 0
1.400000 0.200000 0
1.500000 0.200000 0
1.600000 0.200000 0
1.700000 0.200000 0
1.800000 0.200000 0
1.900000 0.200000 0
2.000000 0.200000 0
2.100000 0.200000 0
2.200000 0.200000 0
2.300000 0.200000 0
2.400000 0.200000 0
2.500000 0.200000 0
2.600000 0.200000 0
2.700000 0.200000 0
2.800000 0.200000 0
2.900000 0.200000 0
3.000000 0.200000 0
3.100000 0.200000 0
3.200000 0.200000 0
3.300000 0.200000 0
3.400000 0.200000 0
3.500000 0.200000 0
3.600000 0.200000 0
3.700000 0.200000 0
3.800000 0.200000 0
3.900000 0.200000 0
4.000000 0.200000 0
4.100000 0.200000 0
4.200000 0.200000 0
4.300000 0.200000 0
4.400000 0.200000 0
4.500000 0.200000 0
4.600000 0.200000 0
4.700000 0.200000 0
4.800000 0.200000 0
4.900000 0.200000 0
5.000000 0.200000 0
5.100000 0.200000 0
5.200000 0.200000 0
5.300000 0.200000 0
5.400000 0.200000 0
5.500000 0.200000 0
5.600000 0.200000 0
5.700000 0.200000 0
5.800000 0.200000 0
5.900000 0.200000 0
6.000000 0.200000 0
6.100000 0.200000 0
6.200000 0.200000 0
6.300000 0.200000 0
6.400000 0.200000 0
6.500000 0.200000 0
6.600000 0.200000 0
6.700000 0.200000 0
6.800000 0.200000 0
6.900000 0.200000 0
7.000000 0.200000 0
7.100000 0.200000 0
7.200000 0.200000 0
7.300000 0.200000 0
7.400000 0.200000 0
7.500000 0.200000 0
7.600000 0.200000 0
7.700000 0.200000 0
7.800000 0.200000 0
7.900000 0.200000 0
8.000000 0.200000 0
8.100000 0.200000 0
8.200000 0.200000 0
8.300000 0.200000 0
8.400000 0.200000 0
8.500000 0.200000 0
8.600000 0.200000 0
8.700000 0.200000 0
8.800000 0.200000 0
8.900000 0.200000 0
9.000000 0.200000 0
9.100000 0.200000 0
9.200000 0.200000 0
9.300000 0.200000 0
9.400000 0.200000 0
9.500000 0.200000 0
9.600000 0.200000 0
9.700000 0.200000 0
9.800000 0.200000 0
9.900000 0.200000 0
10.000000 0.200000 0
0.000000 0.300000 0
0.100000 0.300000 0
0.200000 0.300000 0
0.300000 0.300000 0
0.400000 0.300000 0
0.500000 0.300000 0
0.600000 0.300000 0
0.700000 0.300000 0
0.800000 0.300000 0
0.900000 0.300000 0
1.000000 0.300000 0
1.100000 0.300000 0
1.200000 0.300000 0
1.300000 0.300000 0
1.400000 0.300000 0
1.500000 0.300000 0
1.600000 0.300000 0
1.700000 0.300000 0
1.800000 0.300000 0
1.900000 0.300000 0
2.000000 0.300000 0
2.100000 0.300000 0
2.200000 0.300000 0
2.300000 0.300000 0
2.400000 0.300000 0
2.500000 0.300000 0
2.600000 0.300000 0
2.700000 0.300000 0
2.800000 0.300000 0
2.900000 0.300000 0
3.000000 0.300000 0
3.100000 0.300000 0
3.200000 0.300000 0
3.300000 0.300000 0
3.400000 0.300000 0
3.500000 0.300000 0
3.600000 0.300000 0
3.700000 0.300000 0
3.800000 0.300000 0
3.900000 0.300000 0
4.000000 0.300000 0
4.100000 0.300000 0
4.200000 0.300000 0
4.300000 0.300000 0
4.400000 0.300000 0
4.500000 0.300000 0
4.600000 0.300000 0
4.700000 0.300000 0
4.800000 0.300000 0
4.900000 0.300000 0
5.000000 0.300000 0
5.100000 0.300000 0
5.200000 0.300000 0
5.300000 0.300000 0
5.400000 0.300000 0
5.500000 0.300000 0
5.600000 0.300000 0
5.700000 0.300000 0
5.800000 0.300000 0
5.900000 0.300000 0
6.000000 0.300000 0
6.100000 0.300000 0
6.200000 0.300000 0
6.300000 0.300000 0
6.400000 0.300000 0
6.500000 0.300000 0
6.600000 0.300000 0
6.700000 0.300000 0
6.800000 0.300000 0
6.900000 0.300000 0
7.000000 0.300000 0
7.100000 0.300000 0
7.200000 0.300000 0
7.300000 0.300000 0
7.400000 0.300000 0
7.500000 0.300000 0
7.600000 0.300000 0
7.700000 0.300000 0
7.800000 0.300000 0
7.900000 0.300000 0
8.000000 0.300000 0
8.100000 0.300000 0
8.200000 0.300000 0
8.300000 0.300000 0
8.400000 0.300000 0
8.500000 0.300000 0
8.600000 0.300000 0
8.700000 0.300000 0
8.800000 0.300000 0
8.900000 0.300000 0
9.000000 0.300000 0
9.100000 0.300000 0
9.200000 0.300000 0
9.300000 0.300000 0
9.400000 0.300000 0
9.500000 0.300000 0
9.600000 0.300000 0
9.700000 0.300000 0
9.800000 0.300000 0
9.900000 0.300000 0
10.000000 0.300000 0
0.000000 0.400000 0
0.100000 0.400000 0
0.200000 0.400000 0
0.300000 0.400000 0
0.400000 0.400000 0
0.500000 0.400000 0
0.600000 0.400000 0
0.700000 0.400000 0
0.800000 0.400000 0
0.900000 0.400000 0
1.000000 0.400000 0
1.100000 0.400000 0
1.200000 0.400000 0
1.300000 0.400000 0
1.400000 0.400000 0
1.500000 0.400000 0
1.600000 0.400000 0
1.700000 0.400000 0
1.800000 0.400000 0
1.900000 0.400000 0
2.000000 0.400000 0
2.100000 0.400000 0
2.200000 0.400000 0
2.300000 0.400000 0
2.400000 0.400000 0
2.500000 0.400000 0
2.600000 0.400000 0
2.700000 0.400000 0
2.800000 0.400000 0
2.900000 0.400000 0
3.000000 0.400000 0
3.100000 0.400000 0
3.200000 0.400000 0
3.300000 0.400000 0
3.400000 0.400000 0
3.500000 0.400000 0
3.600000 0.400000 0
3.700000 0.400000 0
3.800000 0.400000 0
3.900000 0.400000 0
4.000000 0.400000 0
4.100000 0.400000 0
4.200000 0.400000 0
4.300000 0.400000 0
4.400000 0.400000 0
4.500000 0.400000 0
4.600000 0.400000 0
4.700000 0.400000 0
4.800000 0.400000 0
4.900000 0.400000 0
5.000000 0.400000 0
5.100000 0.400000 0
5.200000 0.400000 0
5.300000 0.400000 0
5.400000 0.400000 0
5.500000 0.400000 0
5.600000 0.400000 0
5.700000 0.400000 0
5.800000 0.400000 0
5.900000 0.400000 0
6.000000 0.400000 0
6.100000 0.400000 0
6.200000 0.400000 0
6.300000 0.400000 0
6.400000 0.400000 0
6.500000 0.400000 0
6.600000 0.400000 0
6.700000 0.400000 0
6.800000 0.400000 0
6.900000 0.400000 0
7.000000 0.400000 0
7.100000 0.400000 0
7.200000 0.400000 0
7.300000 0.400000 0
7.400000 0.400000 0
7.500000 0.400000 0
7.600000 0.400000 0
7.700000 0.400000 0
7.800000 0.400000 0
7.900000 0.400000 0
8.000000 0.400000 0
8.100000 0.400000 0
8.200000 0.400000 0
8.300000 0.400000 0
8.400000 0.400000 0
8.500000 0.400000 0
8.600000 0.400000 0
[...]
POINT_DATA 2121 

VECTORS velocity float
0.500000 0.000000 0
0.003217 0.000000 0
0.006202 0.000000 0
0.010791 0.000000 0
0.014510 0.000000 0
0.017871 0.000000 0
0.021016 0.000000 0
0.023916 0.000000 0
0.026443 0.000000 0
0.028459 0.000000 0
0.029910 0.000000 0
0.030832 0.000000 0
0.031331 0.000000 0
0.031543 0.000000 0
0.031612 0.000000 0
0.031662 0.000000 0
0.031777 0.000000 0
0.032005 0.000000 0
0.032361 0.000000 0
0.032839 0.000000 0
0.033421 0.000000 0
0.034084 0.000000 0
0.034805 0.000000 0
0.035565 0.000000 0
0.036344 0.000000 0
0.037128 0.000000 0
0.037907 0.000000 0
0.038672 0.000000 0
0.039416 0.000000 0
0.040134 0.000000 0
0.040823 0.000000 0
0.041479 0.000000 0
0.042100 0.000000 0
0.042685 0.000000 0
0.043233 0.000000 0
0.043743 0.000000 0
0.044214 0.000000 0
0.044645 0.000000 0
0.045037 0.000000 0
0.045389 0.000000 0
0.045701 0.000000 0
0.045972 0.000000 0
0.046203 0.000000 0
0.046393 0.000000 0
0.046543 0.000000 0
0.046652 0.000000 0
0.046721 0.000000 0
0.046750 0.000000 0
0.046738 0.000000 0
0.046686 0.000000 0
0.046595 0.000000 0
0.046464 0.000000 0
0.046293 0.000000 0
0.046084 0.000000 0
0.045835 0.000000 0
0.045549 0.000000 0
0.045224 0.000000 0
0.044862 0.000000 0
0.044463 0.000000 0
0.044027 0.000000 0
0.043555 0.000000 0
0.043047 0.000000 0
0.042505 0.000000 0
0.041928 0.000000 0
0.041317 0.000000 0
0.040673 0.000000 0
0.039997 0.000000 0
0.039289 0.000000 0
0.038551 0.000000 0
0.037782 0.000000 0
0.036983 0.000000 0
0.036157 0.000000 0
0.035302 0.000000 0
0.034420 0.000000 0
0.033513 0.000000 0
0.032581 0.000000 0
0.031624 0.000000 0
0.030644 0.000000 0
0.029642 0.000000 0
0.028619 0.000000 0
0.027575 0.000000 0
0.026512 0.000000 0
0.025431 0.000000 0
0.024333 0.000000 0
0.023218 0.000000 0
0.022089 0.000000 0
0.020946 0.000000 0
0.019789 0.000000 0
0.018621 0.000000 0
0.017443 0.000000 0
0.016254 0.000000 0
0.015057 0.000000 0
0.013853 0.000000 0
0.012643 0.000000 0
0.011428 0.000000 0
0.010209 0.000000 0
0.008987 0.000000 0
0.007764 0.000000 0
0.006542 0.000000 0
0.005322 0.000000 0
0.004086 0.000000 0
1.000000 0.005339 0
0.967524 -0.033142 0
0.976551 -0.045133 0
0.988480 -0.043974 0
0.999885 -0.042278 0
1.011217 -0.041277 0
1.021996 -0.039560 0
1.030738 -0.036250 0
1.035166 -0.031067 0
1.033000 -0.024568 0
1.023259 -0.017959 0
1.006678 -0.012480 0
0.985236 -0.008898 0
0.961331 -0.007356 0
0.937084 -0.007520 0
0.913972 -0.008836 0
0.892796 -0.010751 0
0.873818 -0.012835 0
0.856957 -0.014812 0
0.841948 -0.016537 0
0.828461 -0.017961 0
0.816168 -0.019090 0
0.804779 -0.019958 0
0.794053 -0.020610 0
0.783801 -0.021093 0
0.773876 -0.021444 0
0.764169 -0.021699 0
0.754600 -0.021883 0
0.745113 -0.022016 0
0.735665 -0.022115 0
0.726230 -0.022189 0
0.716788 -0.022248 0
0.707327 -0.022296 0
0.697840 -0.022339 0
0.688320 -0.022378 0
0.678767 -0.022416 0
0.669178 -0.022454 0
0.659555 -0.022493 0
0.649896 -0.022533 0
0.640204 -0.022575 0
0.630480 -0.022618 0
0.620724 -0.022663 0
0.610938 -0.022709 0
0.601124 -0.022757 0
0.591281 -0.022806 0
0.581411 -0.022856 0
0.571516 -0.022907 0
0.561596 -0.022958 0
0.551651 -0.023011 0
0.541683 -0.023063 0
0.531692 -0.023116 0
0.521679 -0.023170 0
0.511644 -0.023223 0
0.501588 -0.023276 0
0.491512 -0.023330 0
0.481415 -0.023383 0
0.471298 -0.023435 0
0.461162 -0.023488 0
0.451007 -0.023540 0
0.440833 -0.023591 0
0.430640 -0.023642 0
0.420430 -0.023693 0
0.410203 -0.023742 0
0.399958 -0.023791 0
0.389696 -0.023840 0
0.379418 -0.023887 0
0.369124 -0.023933 0
0.358814 -0.023979 0
0.348489 -0.024023 0
0.338149 -0.024067 0
0.327794 -0.024109 0
0.317426 -0.024151 0
0.307044 -0.024191 0
0.296649 -0.024230 0
0.286241 -0.024268 0
0.275820 -0.024305 0
0.265388 -0.024340 0
0.254945 -0.024374 0
0.244490 -0.024407 0
0.234025 -0.024439 0
0.223551 -0.024469 0
0.213066 -0.024498 0
0.202573 -0.024525 0
0.192071 -0.024552 0
0.181562 -0.024576 0
0.171045 -0.024599 0
0.160521 -0.024621 0
0.149991 -0.024641 0
0.139454 -0.024660 0
0.128913 -0.024677 0
0.118366 -0.024693 0
0.107815 -0.024707 0
0.097261 -0.024720 0
0.086703 -0.024731 0
0.076142 -0.024740 0
0.065579 -0.024748 0
0.055014 -0.024755 0
0.044448 -0.024761 0
0.033881 -0.024767 0
0.023315 -0.024745 0
0.012719 -0.021933 0
1.000000 0.007054 0
0.969212 -0.037660 0
0.972188 -0.059509 0
0.980233 -0.061906 0
0.990442 -0.061334 0
1.002378 -0.060735 0
1.015312 -0.058176 0
1.027345 -0.051860 0
1.035048 -0.040989 0
1.034389 -0.026860 0
1.023799 -0.012487 0
1.004635 -0.000831 0
0.980004 0.006444 0
0.953292 0.009200 0
0.927136 0.008355 0
0.903080 0.005229 0
0.881732 0.001039 0
0.863087 -0.003334 0
0.846822 -0.007364 0
0.832502 -0.010801 0
0.819696 -0.013582 0
0.808023 -0.015748 0
0.797174 -0.017385 0
0.786909 -0.018593 0
0.777046 -0.019466 0
0.767451 -0.020086 0
0.758026 -0.020519 0
0.748703 -0.020817 0
0.739433 -0.021018 0
0.730182 -0.021152 0
0.720927 -0.021240 0
0.711654 -0.021298 0
0.702352 -0.021338 0
0.693017 -0.021365 0
0.683644 -0.021387 0
0.674232 -0.021406 0
0.664782 -0.021425 0
0.655293 -0.021445 0
0.645766 -0.021467 0
0.636203 -0.021492 0
0.626605 -0.021519 0
0.616973 -0.021550 0
0.607308 -0.021583 0
0.597612 -0.021619 0
0.587885 -0.021657 0
0.578129 -0.021697 0
0.568345 -0.021739 0
0.558533 -0.021782 0
0.548695 -0.021827 0
0.538830 -0.021873 0
0.528940 -0.021919 0
0.519025 -0.021967 0
0.509086 -0.022015 0
0.499124 -0.022063 0
0.489138 -0.022111 0
0.479130 -0.022160 0
0.469099 -0.022208 0
0.459046 -0.022257 0
0.448973 -0.022305 0
0.438878 -0.022353 0
0.428762 -0.022400 0
0.418627 -0.022447 0
0.408472 -0.022494 0
0.398297 -0.022539 0
0.388104 -0.022585 0
0.377892 -0.022629 0
0.367663 -0.022673 0
0.357416 -0.022715 0
0.347151 -0.022757 0
0.336870 -0.022798 0
0.326573 -0.022838 0
0.316260 -0.022877 0
0.305932 -0.022915 0
0.295589 -0.022952 0
0.285232 -0.022988 0
0.274862 -0.023022 0
0.264478 -0.023056 0
0.254081 -0.023088 0
0.243672 -0.023119 0
0.233252 -0.023149 0
0.222821 -0.023178 0
0.212379 -0.023205 0
0.201927 -0.023231 0
0.191465 -0.023255 0
0.180995 -0.023279 0
0.170517 -0.023300 0
0.160031 -0.023321 0
0.149537 -0.023340 0
0.139037 -0.023357 0
0.128532 -0.023374 0
0.118020 -0.023388 0
0.107504 -0.023401 0
0.096984 -0.023413 0
0.086460 -0.023423 0
0.075933 -0.023431 0
0.065403 -0.023438 0
0.054871 -0.023444 0
0.044337 -0.023448 0
0.033801 -0.023452 0
0.023262 -0.023423 0
0.012718 -0.020762 0
1.000000 0.008004 0
0.971981 -0.043869 0
0.973825 -0.072126 0
0.979814 -0.078210 0
0.989224 -0.080417 0
1.002455 -0.082155 0
1.019398 -0.080549 0
1.038094 -0.072026 0
1.053021 -0.054169 0
1.055311 -0.029396 0
1.042320 -0.004301 0
1.017242 0.015198 0
0.985770 0.026306 0
0.953320 0.029352 0
0.923413 0.026509 0
0.897523 0.020361 0
0.875743 0.013012 0
0.857504 0.005819 0
0.842040 -0.000510 0
0.828630 -0.005722 0
0.816683 -0.009820 0
0.805749 -0.012936 0
0.795499 -0.015242 0
0.785701 -0.016911 0
0.776191 -0.018094 0
0.766857 -0.018916 0
0.757622 -0.019476 0
0.748434 -0.019847 0
0.739258 -0.020087 0
0.730071 -0.020235 0
0.720859 -0.020322 0
0.711613 -0.020369 0
0.702328 -0.020391 0
0.693002 -0.020398 0
0.683633 -0.020398 0
0.674223 -0.020396 0
0.664771 -0.020394 0
0.655280 -0.020394 0
0.645750 -0.020398 0
0.636183 -0.020406 0
0.626582 -0.020418 0
0.616946 -0.020434 0
0.607278 -0.020455 0
0.597579 -0.020479 0
0.587850 -0.020506 0
0.578092 -0.020537 0
0.568305 -0.020570 0
0.558492 -0.020605 0
0.548652 -0.020642 0
0.538786 -0.020681 0
0.528895 -0.020722 0
0.518979 -0.020763 0
0.509040 -0.020806 0
0.499077 -0.020849 0
0.489091 -0.020893 0
0.479082 -0.020937 0
0.469052 -0.020981 0
0.458999 -0.021026 0
0.448926 -0.021070 0
0.438831 -0.021114 0
0.428716 -0.021158 0
0.418581 -0.021202 0
0.408427 -0.021245 0
0.398253 -0.021288 0
0.388060 -0.021330 0
0.377849 -0.021371 0
0.367621 -0.021412 0
0.357374 -0.021452 0
0.347111 -0.021491 0
0.336831 -0.021530 0
0.326535 -0.021567 0
0.316223 -0.021604 0
0.305896 -0.021640 0
0.295554 -0.021674 0
0.285198 -0.021708 0
0.274828 -0.021741 0
0.264446 -0.021772 0
0.254050 -0.021802 0
0.243643 -0.021832 0
0.233224 -0.021860 0
0.222793 -0.021887 0
0.212353 -0.021912 0
0.201902 -0.021936 0
0.191442 -0.021960 0
0.180973 -0.021981 0
0.170496 -0.022002 0
0.160011 -0.022021 0
0.149520 -0.022039 0
0.139021 -0.022055 0
0.128517 -0.022070 0
0.118007 -0.022084 0
0.107493 -0.022096 0
0.096974 -0.022106 0
0.086451 -0.022115 0
0.075925 -0.022123 0
0.065397 -0.022129 0
0.054866 -0.022133 0
0.044334 -0.022136 0
0.033800 -0.022137 0
0.023263 -0.022105 0
0.012728 -0.019598 0
1.000000 0.008600 0
0.972169 -0.050030 0
0.972244 -0.083314 0
0.975967 -0.093288 0
0.984178 -0.099969 0
0.998809 -0.106918 0
1.021721 -0.109840 0
1.052603 -0.101525 0
1.083622 -0.074265 0
1.091486 -0.032238 0
1.072945 0.009483 0
1.036230 0.039599 0
0.992506 0.054225 0
0.950793 0.055394 0
0.915662 0.047967 0
0.887843 0.036691 0
0.866203 0.024825 0
0.849134 0.014110 0
0.835191 0.005225 0
0.823281 -0.001756 0
0.812643 -0.007042 0
0.802776 -0.010934 0
0.793358 -0.013736 0
0.784190 -0.015715 0
0.775145 -0.017083 0
0.766149 -0.018010 0
0.757155 -0.018621 0
0.748135 -0.019011 0
0.739075 -0.019247 0
0.729967 -0.019380 0
0.720806 -0.019444 0
0.711593 -0.019465 0
0.702327 -0.019459 0
0.693011 -0.019439 0
0.683646 -0.019413 0
0.674235 -0.019386 0
0.664781 -0.019361 0
0.655286 -0.019341 0
0.645751 -0.019325 0
0.636180 -0.019316 0
0.626573 -0.019313 0
0.616933 -0.019315 0
0.607260 -0.019323 0
0.597557 -0.019335 0
0.587824 -0.019352 0
0.578063 -0.019374 0
0.568274 -0.019398 0
0.558458 -0.019426 0
0.548616 -0.019456 0
0.538748 -0.019488 0
0.528856 -0.019523 0
0.518939 -0.019559 0
0.508999 -0.019596 0
0.499035 -0.019634 0
0.489048 -0.019674 0
0.479039 -0.019713 0
0.469009 -0.019754 0
0.458956 -0.019794 0
0.448883 -0.019835 0
0.438788 -0.019875 0
0.428674 -0.019916 0
0.418539 -0.019956 0
0.408385 -0.019996 0
0.398212 -0.020036 0
0.388020 -0.020075 0
0.377809 -0.020114 0
0.367581 -0.020152 0
0.357335 -0.020189 0
0.347073 -0.020226 0
0.336794 -0.020262 0
0.326498 -0.020297 0
0.316187 -0.020331 0
0.305861 -0.020365 0
0.295521 -0.020397 0
0.285166 -0.020429 0
0.274797 -0.020459 0
0.264416 -0.020489 0
0.254021 -0.020517 0
0.243615 -0.020544 0
0.233197 -0.020571 0
0.222768 -0.020596 0
0.212328 -0.020620 0
0.201879 -0.020643 0
0.191420 -0.020664 0
0.180953 -0.020685 0
0.170477 -0.020704 0
0.159994 -0.020722 0
0.149503 -0.020738 0
0.139006 -0.020753 0
0.128503 -0.020767 0
0.117995 -0.020780 0
0.107482 -0.020791 0
0.096964 -0.020800 0
0.086443 -0.020809 0
0.075919 -0.020815 0
0.065392 -0.020820 0
0.054864 -0.020823 0
0.044333 -0.020825 0
0.033801 -0.020824 0
0.023268 -0.020792 0
0.012738 -0.018437 0
1.000000 0.008906 0
0.971014 -0.054662 0
0.967746 -0.091897 0
0.967627 -0.106127 0
0.972705 -0.119254 0
0.986877 -0.135708 0
1.016069 -0.150367 0
1.066964 -0.149969 0
1.137374 -0.109114 0
1.153804 -0.034801 0
1.121650 0.034853 0
1.062218 0.079514 0
0.997219 0.095598 0
0.941675 0.090031 0
0.900588 0.073272 0
0.871973 0.053609 0
0.852080 0.035485 0
0.837624 0.020571 0
0.826298 0.009056 0
0.816646 0.000513 0
0.807818 -0.005656 0
0.799338 -0.010022 0
0.790954 -0.013056 0
0.782539 -0.015128 0
0.774035 -0.016515 0
0.765422 -0.017420 0
0.756696 -0.017989 0
0.747860 -0.018328 0
0.738925 -0.018512 0
0.729898 -0.018594 0
0.720790 -0.018610 0
0.711607 -0.018587 0
0.702359 -0.018542 0
0.693050 -0.018487 0
0.683687 -0.018429 0
0.674273 -0.018374 0
0.664814 -0.018324 0
0.655312 -0.018282 0
0.645771 -0.018247 0
0.636193 -0.018220 0
0.626579 -0.018202 0
0.616933 -0.018190 0
0.607254 -0.018186 0
0.597546 -0.018188 0
0.587808 -0.018195 0
0.578043 -0.018207 0
0.568250 -0.018224 0
0.558431 -0.018244 0
0.548586 -0.018267 0
0.538717 -0.018294 0
0.528822 -0.018322 0
0.518904 -0.018353 0
0.508962 -0.018385 0
0.498998 -0.018419 0
0.489010 -0.018454 0
0.479001 -0.018489 0
0.468969 -0.018525 0
0.458917 -0.018562 0
0.448843 -0.018599 0
0.438749 -0.018636 0
0.428634 -0.018673 0
0.418500 -0.018711 0
0.408346 -0.018748 0
0.398173 -0.018784 0
0.387982 -0.018820 0
0.377772 -0.018856 0
0.367544 -0.018892 0
0.357299 -0.018926 0
0.347037 -0.018960 0
0.336759 -0.018994 0
0.326465 -0.019027 0
0.316155 -0.019059 0
0.305829 -0.019090 0
0.295490 -0.019120 0
0.285136 -0.019149 0
0.274768 -0.019178 0
0.264387 -0.019206 0
0.253994 -0.019232 0
0.243589 -0.019258 0
0.233172 -0.019282 0
0.222744 -0.019306 0
0.212306 -0.019328 0
0.201858 -0.019349 0
0.191400 -0.019369 0
0.180934 -0.019388 0
0.170459 -0.019406 0
0.159977 -0.019423 0
0.149488 -0.019438 0
0.138992 -0.019452 0
0.128490 -0.019465 0
0.117984 -0.019476 0
0.107472 -0.019487 0
0.096956 -0.019495 0
0.086437 -0.019502 0
0.075914 -0.019508 0
0.065389 -0.019512 0
0.054862 -0.019514 0
0.044333 -0.019514 0
0.033804 -0.019512 0
0.023274 -0.019481 0
0.012748 -0.017279 0
1.000000 0.008896 0
0.968926 -0.056327 0
0.960524 -0.095901 0
0.954085 -0.114231 0
0.952133 -0.135214 0
0.959917 -0.166291 0
0.988707 -0.205952 0
1.061804 -0.238871 0
1.235336 -0.177167 0
1.262634 -0.032599 0
1.196554 0.084962 0
1.093761 0.147902 0
0.992467 0.158620 0
0.918091 0.135856 0
0.873035 0.101479 0
0.847370 0.068987 0
0.832508 0.042937 0
0.822973 0.023631 0
0.815714 0.009915 0
0.809175 0.000408 0
0.802632 -0.006076 0
0.795790 -0.010441 0
0.788565 -0.013338 0
0.780961 -0.015228 0
0.773020 -0.016430 0
0.764793 -0.017165 0
0.756329 -0.017587 0
0.747669 -0.017801 0
0.738848 -0.017880 0
0.729894 -0.017874 0
0.720829 -0.017817 0
0.711671 -0.017733 0
0.702433 -0.017636 0
0.693126 -0.017538 0
0.683759 -0.017443 0
0.674339 -0.017357 0
0.664871 -0.017281 0
0.655360 -0.017215 0
0.645809 -0.017161 0
0.636222 -0.017117 0
0.626600 -0.017084 0
0.616945 -0.017059 0
0.607260 -0.017043 0
0.597545 -0.017034 0
0.587802 -0.017032 0
0.578031 -0.017036 0
0.568234 -0.017045 0
0.558411 -0.017059 0
0.548563 -0.017076 0
0.538691 -0.017096 0
0.528794 -0.017120 0
0.518874 -0.017145 0
0.508931 -0.017173 0
0.498965 -0.017202 0
0.488976 -0.017233 0
0.478966 -0.017264 0
0.468934 -0.017297 0
0.458881 -0.017330 0
0.448807 -0.017363 0
0.438713 -0.017397 0
0.428598 -0.017431 0
0.418464 -0.017465 0
0.408310 -0.017499 0
0.398138 -0.017532 0
0.387947 -0.017566 0
0.377737 -0.017599 0
0.367510 -0.017632 0
0.357266 -0.017664 0
0.347005 -0.017695 0
0.336727 -0.017726 0
0.326433 -0.017757 0
0.316124 -0.017786 0
0.305800 -0.017815 0
0.295461 -0.017843 0
0.285108 -0.017871 0
0.274741 -0.017897 0
0.264361 -0.017923 0
0.253969 -0.017947 0
0.243565 -0.017971 0
0.233149 -0.017994 0
0.222722 -0.018016 0
0.212285 -0.018037 0
0.201838 -0.018056 0
0.191381 -0.018075 0
0.180916 -0.018093 0
0.170443 -0.018109 0
0.159962 -0.018124 0
0.149474 -0.018139 0
0.138979 -0.018152 0
0.128479 -0.018163 0
0.117973 -0.018174 0
0.107463 -0.018183 0
0.096949 -0.018191 0
0.086431 -0.018197 0
0.075910 -0.018202 0
0.065386 -0.018205 0
0.054861 -0.018206 0
0.044334 -0.018206 0
0.033807 -0.018203 0
0.023280 -0.018173 0
0.012757 -0.016123 0
1.000000 0.008530 0
0.966276 -0.053741 0
0.951347 -0.093031 0
0.936052 -0.113720 0
0.921818 -0.141082 0
0.911947 -0.188290 0
0.917031 -0.268277 0
0.970061 -0.412637 0
1.248621 -0.326006 0
1.394063 -0.012109 0
1.377353 0.187611 0
1.154098 0.267469 0
0.960788 0.255117 0
0.865177 0.193292 0
0.826081 0.127801 0
0.811954 0.077922 0
0.807595 0.043645 0
0.806035 0.021102 0
0.804398 0.006565 0
0.801694 -0.002721 0
0.797729 -0.008616 0
0.792613 -0.012327 0
0.786539 -0.014629 0
0.779704 -0.016017 0
0.772275 -0.016812 0
0.764386 -0.017225 0
0.756142 -0.017393 0
0.747623 -0.017409 0
0.738888 -0.017332 0
0.729984 -0.017204 0
0.720945 -0.017051 0
0.711796 -0.016890 0
0.702558 -0.016732 0
0.693244 -0.016584 0
0.683866 -0.016450 0
0.674434 -0.016330 0
0.664953 -0.016227 0
0.655429 -0.016138 0
0.645866 -0.016064 0
0.636266 -0.016004 0
0.626634 -0.015956 0
0.616969 -0.015920 0
0.607276 -0.015893 0
0.597553 -0.015875 0
0.587803 -0.015864 0
0.578027 -0.015860 0
0.568225 -0.015863 0
0.558398 -0.015870 0
0.548546 -0.015881 0
0.538670 -0.015896 0
0.528771 -0.015915 0
0.518849 -0.015935 0
0.508904 -0.015959 0
0.498936 -0.015984 0
0.488946 -0.016010 0
0.478935 -0.016038 0
0.468902 -0.016067 0
0.458849 -0.016096 0
0.448775 -0.016127 0
0.438680 -0.016157 0
0.428565 -0.016188 0
0.418431 -0.016219 0
0.408278 -0.016250 0
0.398105 -0.016281 0
0.387914 -0.016311 0
0.377705 -0.016342 0
0.367479 -0.016372 0
0.357235 -0.016401 0
0.346974 -0.016430 0
0.336697 -0.016459 0
0.326404 -0.016487 0
0.316095 -0.016514 0
0.305772 -0.016541 0
0.295434 -0.016567 0
0.285082 -0.016592 0
0.274716 -0.016617 0
0.264337 -0.016640 0
0.253945 -0.016663 0
0.243542 -0.016685 0
0.233127 -0.016706 0
0.222701 -0.016726 0
0.212265 -0.016746 0
0.201819 -0.016764 0
0.191364 -0.016781 0
0.180900 -0.016797 0
0.170427 -0.016812 0
0.159947 -0.016827 0
0.149461 -0.016840 0
0.138967 -0.016851 0
0.128468 -0.016862 0
0.117964 -0.016872 0
0.107455 -0.016880 0
0.096942 -0.016887 0
0.086425 -0.016892 0
0.075906 -0.016896 0
0.065384 -0.016899 0
0.054861 -0.016900 0
0.044336 -0.016899 0
0.033811 -0.016896 0
0.023287 -0.016868 0
0.012767 -0.014967 0
1.000000 0.007788 0
0.963653 -0.046231 0
0.942029 -0.081652 0
0.916953 -0.100687 0
0.887136 -0.127104 0
0.849015 -0.177509 0
0.796579 -0.280085 0
0.718836 -0.586496 0
0.578442 -0.617227 0
-0.030678 -0.177429 0
0.756515 0.308798 0
0.875363 0.548327 0
0.797667 0.431385 0
0.755744 0.254391 0
0.754148 0.138510 0
0.766763 0.071258 0
0.779870 0.032617 0
0.789160 0.010564 0
0.794138 -0.002033 0
0.795460 -0.009239 0
0.793964 -0.013340 0
0.790377 -0.015625 0
0.785260 -0.016833 0
0.779026 -0.017398 0
0.771974 -0.017577 0
0.764318 -0.017529 0
0.756214 -0.017353 0
0.747775 -0.017109 0
0.739081 -0.016837 0
0.730193 -0.016560 0
0.721153 -0.016294 0
0.711994 -0.016045 0
0.702740 -0.015819 0
0.693408 -0.015618 0
0.684011 -0.015441 0
0.674559 -0.015288 0
0.665060 -0.015157 0
0.655518 -0.015047 0
0.645939 -0.014955 0
0.636326 -0.014879 0
0.626680 -0.014818 0
0.617005 -0.014770 0
0.607301 -0.014734 0
0.597570 -0.014707 0
0.587813 -0.014689 0
0.578030 -0.014679 0
0.568222 -0.014675 0
0.558390 -0.014676 0
0.548534 -0.014683 0
0.538655 -0.014693 0
0.528753 -0.014707 0
0.518828 -0.014723 0
0.508881 -0.014743 0
0.498911 -0.014764 0
0.488920 -0.014787 0
0.478908 -0.014811 0
0.468874 -0.014836 0
0.458820 -0.014862 0
0.448745 -0.014889 0
0.438650 -0.014917 0
0.428535 -0.014945 0
0.418401 -0.014973 0
0.408248 -0.015001 0
0.398075 -0.015029 0
0.387885 -0.015056 0
0.377676 -0.015084 0
0.367450 -0.015112 0
0.357207 -0.015139 0
0.346946 -0.015165 0
0.336670 -0.015192 0
0.326377 -0.015217 0
0.316069 -0.015242 0
0.305746 -0.015267 0
0.295409 -0.015291 0
0.285057 -0.015314 0
0.274692 -0.015336 0
0.264314 -0.015358 0
0.253924 -0.015379 0
0.243521 -0.015399 0
0.233107 -0.015419 0
0.222682 -0.015437 0
0.212247 -0.015455 0
0.201802 -0.015472 0
0.191348 -0.015487 0
0.180884 -0.015502 0
0.170413 -0.015516 0
0.159934 -0.015529 0
0.149449 -0.015541 0
0.138957 -0.015552 0
0.128459 -0.015562 0
0.117956 -0.015570 0
0.107448 -0.015577 0
0.096936 -0.015584 0
0.086421 -0.015588 0
0.075903 -0.015592 0
0.065383 -0.015594 0
0.054861 -0.015594 0
0.044338 -0.015593 0
0.033815 -0.015590 0
0.023293 -0.015564 0
0.012775 -0.013813 0
1.000000 0.006690 0
0.961784 -0.034329 0
0.935119 -0.062306 0
0.902590 -0.074811 0
0.860753 -0.089137 0
0.800394 -0.113736 0
0.701465 -0.154111 0
0.514347 -0.210525 0
0.012526 0.022889 0
-0.792450 0.079511 0
0.000000 -0.043548 0
0.276532 0.230827 0
0.506300 0.358580 0
0.596848 0.220638 0
0.667935 0.100589 0
0.721154 0.035985 0
0.755951 0.005009 0
0.776584 -0.009431 0
0.787521 -0.016024 0
0.792029 -0.018863 0
0.792275 -0.019879 0
0.789658 -0.019998 0
0.785084 -0.019682 0
0.779152 -0.019164 0
0.772260 -0.018569 0
0.764682 -0.017963 0
0.756606 -0.017380 0
0.748165 -0.016839 0
0.739452 -0.016347 0
0.730535 -0.015907 0
0.721463 -0.015518 0
0.712270 -0.015178 0
0.702982 -0.014882 0
0.693618 -0.014627 0
0.684192 -0.014409 0
0.674713 -0.014224 0
0.665190 -0.014068 0
0.655627 -0.013937 0
0.646029 -0.013828 0
0.636398 -0.013739 0
0.626738 -0.013667 0
0.617050 -0.013610 0
0.607335 -0.013565 0
0.597594 -0.013531 0
0.587829 -0.013507 0
0.578039 -0.013491 0
0.568225 -0.013482 0
0.558387 -0.013478 0
0.548527 -0.013480 0