# vtk DataFile Version 2.0
generated by CFD-lab course output (written by Tobias Neckel) 
ASCII

DATASET STRUCTURED_GRID
DIMENSIONS  101 21 1 
POINTS 2121 float

0.000000 0.000000 0
0.100000 0.000000 0
0.200000 0.000000 0
0.300000 0.000000 0
0.400000 0.000000 0
0.500000 0.000000 0
0.600000 0.000000 0
0.700000 0.000000 0
0.800000 0.000000 0
0.900000 0.000000 0
1.000000 0.000000 0
1.100000 0.000000 0
1.200000 0.000000 0
1.300000 0.000000 0
1.400000 0.000000 0
1.500000 0.000000 0
1.600000 0.000000 0
1.700000 0.000000 0
1.800000 0.000000 0
1.900000 0.000000 0
2.000000 0.000000 0
2.100000 0.000000 0
2.200000 0.000000 0
2.300000 0.000000 0
2.400000 0.000000 0
2.500000 0.000000 0
2.600000 0.000000 0
2.700000 0.000000 0
2.800000 0.000000 0
2.900000 0.000000 0
3.000000 0.000000 0
3.100000 0.000000 0
3.200000 0.000000 0
3.300000 0.000000 0
3.400000 0.000000 0
3.500000 0.000000 0
3.600000 0.000000 0
3.700000 0.000000 0
3.800000 0.000000 0
3.900000 0.000000 0
4.000000 0.000000 0
4.100000 0.000000 0
4.200000 0.000000 0
4.300000 0.000000 0
4.400000 0.000000 0
4.500000 0.000000 0
4.600000 0.000000 0
4.700000 0.000000 0
4.800000 0.000000 0
4.900000 0.000000 0
5.000000 0.000000 0
5.100000 0.000000 0
5.200000 0.000000 0
5.300000 0.000000 0
5.400000 0.000000 0
5.500000 0.000000 0
5.600000 0.000000 0
5.700000 0.000000 0
5.800000 0.000000 0
5.900000 0.000000 0
6.000000 0.000000 0
6.100000 0.000000 0
6.200000 0.000000 0
6.300000 0.000000 0
6.400000 0.000000 0
6.500000 0.000000 0
6.600000 0.000000 0
6.700000 0.000000 0
6.800000 0.000000 0
6.900000 0.000000 0
7.000000 0.000000 0
7.100000 0.000000 0
7.200000 0.000000 0
7.300000 0.000000 0
7.400000 0.000000 0
7.500000 0.000000 0
7.600000 0.000000 0
7.700000 0.000000 0
7.800000 0.000000 0
7.900000 0.000000 0
8.000000 0.000000 0
8.100000 0.000000 0
8.200000 0.000000 0
8.300000 0.000000 0
8.400000 0.000000 0
8.500000 0.000000 0
8.600000 0.000000 0
8.700000 0.000000 0
8.800000 0.000000 0
8.900000 0.000000 0
9.000000 0.000000 0
9.100000 0.000000 0
9.200000 0.000000 0
9.300000 0.000000 0
9.400000 0.000000 0
9.500000 0.000000 0
9.600000 0.000000 0
9.700000 0.000000 0
9.800000 0.000000 0
9.900000 0.000000 0
10.000000 0.000000 0
0.000000 0.100000 0
0.100000 0.100000 0
0.200000 0.100000 0
0.300000 0.100000 0
0.400000 0.100000 0
0.500000 0.100000 0
0.600000 0.100000 0
0.700000 0.100000 0
0.800000 0.100000 0
0.900000 0.100000 0
1.000000 0.100000 0
1.100000 0.100000 0
1.200000 0.100000 0
1.300000 0.100000 0
1.400000 0.100000 0
1.500000 0.100000 0
1.600000 0.100000 0
1.700000 0.100000 0
1.800000 0.100000 0
1.900000 0.100000 0
2.000000 0.100000 0
2.100000 0.100000 0
2.200000 0.100000 0
2.300000 0.100000 0
2.400000 0.100000 0
2.500000 0.100000 0
2.600000 0.100000 0
2.700000 0.100000 0
2.800000 0.100000 0
2.900000 0.100000 0
3.000000 0.100000 0
3.100000 0.100000 0
3.200000 0.100000 0
3.300000 0.100000 0
3.400000 0.100000 0
3.500000 0.100000 0
3.600000 0.100000 0
3.700000 0.100000 0
3.800000 0.100000 0
3.900000 0.100000 0
4.000000 0.100000 0
4.100000 0.100000 0
4.200000 0.100000 0
4.300000 0.100000 0
4.400000 0.100000 0
4.500000 0.100000 0
4.600000 0.100000 0
4.700000 0.100000 0
4.800000 0.100000 0
4.900000 0.100000 0
5.000000 0.100000 0
5.100000 0.100000 0
5.200000 0.100000 0
5.300000 0.100000 0
5.400000 0.100000 0
5.500000 0.100000 0
5.600000 0.100000 0
5.700000 0.100000 0
5.800000 0.100000 0
5.900000 0.100000 0
6.000000 0.100000 0
6.100000 0.100000 0
6.200000 0.100000 0
6.300000 0.100000 0
6.400000 0.100000 0
6.500000 0.100000 0
6.600000 0.100000 0
6.700000 0.100000 0
6.800000 0.100000 0
6.900000 0.100000 0
7.000000 0.100000 0
7.100000 0.100000 0
7.200000 0.100000 0
7.300000 0.100000 0
7.400000 0.100000 0
7.500000 0.100000 0
7.600000 0.100000 0
7.700000 0.100000 0
7.800000 0.100000 0
7.900000 0.100000 0
8.000000 0.100000 0
8.100000 0.100000 0
8.200000 0.100000 0
8.300000 0.100000 0
8.400000 0.100000 0
8.500000 0.100000 0
8.600000 0.100000 0
8.700000 0.100000 0
8.800000 0.100000 0
8.900000 0.100000 0
9.000000 0.100000 0
9.100000 0.100000 0
9.200000 0.100000 0
9.300000 0.100000 0
9.400000 0.100000 0
9.500000 0.100000 0
9.600000 0.100000 0
9.700000 0.100000 0
9.800000 0.100000 0
9.900000 0.100000 0
10.000000 0.100000 0
0.000000 0.200000 0
0.100000 0.200000 0
0.200000 0.200000 0
0.300000 0.200000 0
0.400000 0.200000 0
0.500000 0.200000 0
0.600000 0.200000 0
0.700000 0.200000 0
0.800000 0.200000 0
0.900000 0.200000 0
1.000000 0.200000 0
1.100000 0.200000 0
1.200000 0.200000 0
1.300000 0.200000 0
1.400000 0.200000 0
1.500000 0.200000 0
1.600000 0.200000 0
1.700000 0.200000 0
1.800000 0.200000 0
1.900000 0.200000 0
2.000000 0.200000 0
2.100000 0.200000 0
2.200000 0.200000 0
2.300000 0.200000 0
2.400000 0.200000 0
2.500000 0.200000 0
2.600000 0.200000 0
2.700000 0.200000 0
2.800000 0.200000 0
2.900000 0.200000 0
3.000000 0.200000 0
3.100000 0.200000 0
3.200000 0.200000 0
3.300000 0.200000 0
3.400000 0.200000 0
3.500000 0.200000 0
3.600000 0.200000 0
3.700000 0.200000 0
3.800000 0.200000 0
3.900000 0.200000 0
4.000000 0.200000 0
4.100000 0.200000 0
4.200000 0.200000 0
4.300000 0.200000 0
4.400000 0.200000 0
4.500000 0.200000 0
4.600000 0.200000 0
4.700000 0.200000 0
4.800000 0.200000 0
4.900000 0.200000 0
5.000000 0.200000 0
5.100000 0.200000 0
5.200000 0.200000 0
5.300000 0.200000 0
5.400000 0.200000 0
5.500000 0.200000 0
5.600000 0.200000 0
5.700000 0.200000 0
5.800000 0.200000 0
5.900000 0.200000 0
6.000000 0.200000 0
6.100000 0.200000 0
6.200000 0.200000 0
6.300000 0.200000 0
6.400000 0.200000 0
6.500000 0.200000 0
6.600000 0.200000 0
6.700000 0.200000 0
6.800000 0.200000 0
6.900000 0.200000 0
7.000000 0.200000 0
7.100000 0.200000 0
7.200000 0.200000 0
7.300000 0.200000 0
7.400000 0.200000 0
7.500000 0.200000 0
7.600000 0.200000 0
7.700000 0.200000 0
7.800000 0.200000 0
7.900000 0.200000 0
8.000000 0.200000 0
8.100000 0.200000 0
8.200000 0.200000 0
8.300000 0.200000 0
8.400000 0.200000 0
8.500000 0.200000 0
8.600000 0.200000 0
8.700000 0.200000 0
8.800000 0.200000 0
8.900000 0.200000 0
9.000000 0.200000 0
9.100000 0.200000 0
9.200000 0.200000 0
9.300000 0.200000 0
9.400000 0.200000 0
9.500000 0.200000 0
9.600000 0.200000 0
9.700000 0.200000 0
9.800000 0.200000 0
9.900000 0.200000 0
10.000000 0.200000 0
0.000000 0.300000 0
0.100000 0.300000 0
0.200000 0.300000 0
0.300000 0.300000 0
0.400000 0.300000 0
0.500000 0.300000 0
0.600000 0.300000 0
0.700000 0.300000 0
0.800000 0.300000 0
0.900000 0.300000 0
1.000000 0.300000 0
1.100000 0.300000 0
1.200000 0.300000 0
1.300000 0.300000 0
1.400000 0.300000 0
1.500000 0.300000 0
1.600000 0.300000 0
1.700000 0.300000 0
1.800000 0.300000 0
1.900000 0.300000 0
2.000000 0.300000 0
2.100000 0.300000 0
2.200000 0.300000 0
2.300000 0.300000 0
2.400000 0.300000 0
2.500000 0.300000 0
2.600000 0.300000 0
2.700000 0.300000 0
2.800000 0.300000 0
2.900000 0.300000 0
3.000000 0.300000 0
3.100000 0.300000 0
3.200000 0.300000 0
3.300000 0.300000 0
3.400000 0.300000 0
3.500000 0.300000 0
3.600000 0.300000 0
3.700000 0.300000 0
3.800000 0.300000 0
3.900000 0.300000 0
4.000000 0.300000 0
4.100000 0.300000 0
4.200000 0.300000 0
4.300000 0.300000 0
4.400000 0.300000 0
4.500000 0.300000 0
4.600000 0.300000 0
4.700000 0.300000 0
4.800000 0.300000 0
4.900000 0.300000 0
5.000000 0.300000 0
5.100000 0.300000 0
5.200000 0.300000 0
5.300000 0.300000 0
5.400000 0.300000 0
5.500000 0.300000 0
5.600000 0.300000 0
5.700000 0.300000 0
5.800000 0.300000 0
5.900000 0.300000 0
6.000000 0.300000 0
6.100000 0.300000 0
6.200000 0.300000 0
6.300000 0.300000 0
6.400000 0.300000 0
6.500000 0.300000 0
6.600000 0.300000 0
6.700000 0.300000 0
6.800000 0.300000 0
6.900000 0.300000 0
7.000000 0.300000 0
7.100000 0.300000 0
7.200000 0.300000 0
7.300000 0.300000 0
7.400000 0.300000 0
7.500000 0.300000 0
7.600000 0.300000 0
7.700000 0.300000 0
7.800000 0.300000 0
7.900000 0.300000 0
8.000000 0.300000 0
8.100000 0.300000 0
8.200000 0.300000 0
8.300000 0.300000 0
8.400000 0.300000 0
8.500000 0.300000 0
8.600000 0.300000 0
8.700000 0.300000 0
8.800000 0.300000 0
8.900000 0.300000 0
9.000000 0.300000 0
9.100000 0.300000 0
9.200000 0.300000 0
9.300000 0.300000 0
9.400000 0.300000 0
9.500000 0.300000 0
9.600000 0.300000 0
9.700000 0.300000 0
9.800000 0.300000 0
9.900000 0.300000 0
10.000000 0.300000 0
0.000000 0.400000 0
0.100000 0.400000 0
0.200000 0.400000 0
0.300000 0.400000 0
0.400000 0.400000 0
0.500000 0.400000 0
0.600000 0.400000 0
0.700000 0.400000 0
0.800000 0.400000 0
0.900000 0.400000 0
1.000000 0.400000 0
1.100000 0.400000 0
1.200000 0.400000 0
1.300000 0.400000 0
1.400000 0.400000 0
1.500000 0.400000 0
1.600000 0.400000 0
1.700000 0.400000 0
1.800000 0.400000 0
1.900000 0.400000 0
2.000000 0.400000 0
2.100000 0.400000 0
2.200000 0.400000 0
2.300000 0.400000 0
2.400000 0.400000 0
2.500000 0.400000 0
2.600000 0.400000 0
2.700000 0.400000 0
2.800000 0.400000 0
2.900000 0.400000 0
3.000000 0.400000 0
3.100000 0.400000 0
3.200000 0.400000 0
3.300000 0.400000 0
3.400000 0.400000 0
3.500000 0.400000 0
3.600000 0.400000 0
3.700000 0.400000 0
3.800000 0.400000 0
3.900000 0.400000 0
4.000000 0.400000 0
4.100000 0.400000 0
4.200000 0.400000 0
4.300000 0.400000 0
4.400000 0.400000 0
4.500000 0.400000 0
4.600000 0.400000 0
4.700000 0.400000 0
4.800000 0.400000 0
4.900000 0.400000 0
5.000000 0.400000 0
5.100000 0.400000 0
5.200000 0.400000 0
5.300000 0.400000 0
5.400000 0.400000 0
5.500000 0.400000 0
5.600000 0.400000 0
5.700000 0.400000 0
5.800000 0.400000 0
5.900000 0.400000 0
6.000000 0.400000 0
6.100000 0.400000 0
6.200000 0.400000 0
6.300000 0.400000 0
6.400000 0.400000 0
6.500000 0.400000 0
6.600000 0.400000 0
6.700000 0.400000 0
6.800000 0.400000 0
6.900000 0.400000 0
7.000000 0.400000 0
7.100000 0.400000 0
7.200000 0.400000 0
7.300000 0.400000 0
7.400000 0.400000 0
7.500000 0.400000 0
7.600000 0.400000 0
7.700000 0.400000 0
7.800000 0.400000 0
7.900000 0.400000 0
8.000000 0.400000 0
8.100000 0.400000 0
8.200000 0.400000 0
8.300000 0.400000 0
8.400000 0.400000 0
8.500000 0.400000 0
8.600000 0.400000 0
[...]
POINT_DATA 2121 

VECTORS velocity float
0.500000 0.000000 0
0.000132 0.000000 0
0.000134 0.000000 0
0.000115 0.000000 0
0.000091 0.000000 0
0.000073 0.000000 0
0.000079 0.000000 0
0.000125 0.000000 0
0.000234 0.000000 0
0.000420 0.000000 0
0.000681 0.000000 0
0.000988 0.000000 0
0.001286 0.000000 0
0.001509 0.000000 0
0.001602 0.000000 0
0.001537 0.000000 0
0.001338 0.000000 0
0.001077 0.000000 0
0.000861 0.000000 0
0.000837 0.000000 0
0.001169 0.000000 0
0.001995 0.000000 0
0.003314 0.000000 0
0.004888 0.000000 0
0.006275 0.000000 0
0.007118 0.000000 0
0.007517 0.000000 0
0.007604 0.000000 0
0.007476 0.000000 0
0.007191 0.000000 0
0.006725 0.000000 0
0.006158 0.000000 0
0.005603 0.000000 0
0.005125 0.000000 0
0.004746 0.000000 0
0.004464 0.000000 0
0.004266 0.000000 0
0.004135 0.000000 0
0.004055 0.000000 0
0.004013 0.000000 0
0.003996 0.000000 0
0.003998 0.000000 0
0.004012 0.000000 0
0.004033 0.000000 0
0.004057 0.000000 0
0.004084 0.000000 0
0.004110 0.000000 0
0.004136 0.000000 0
0.004160 0.000000 0
0.004182 0.000000 0
0.004203 0.000000 0
0.004221 0.000000 0
0.004238 0.000000 0
0.004253 0.000000 0
0.004267 0.000000 0
0.004279 0.000000 0
0.004290 0.000000 0
0.004299 0.000000 0
0.004308 0.000000 0
0.004316 0.000000 0
0.004323 0.000000 0
0.004330 0.000000 0
0.004336 0.000000 0
0.004342 0.000000 0
0.004347 0.000000 0
0.004352 0.000000 0
0.004357 0.000000 0
0.004362 0.000000 0
0.004366 0.000000 0
0.004371 0.000000 0
0.004375 0.000000 0
0.004379 0.000000 0
0.004383 0.000000 0
0.004387 0.000000 0
0.004391 0.000000 0
0.004395 0.000000 0
0.004399 0.000000 0
0.004403 0.000000 0
0.004407 0.000000 0
0.004411 0.000000 0
0.004415 0.000000 0
0.004419 0.000000 0
0.004423 0.000000 0
0.004427 0.000000 0
0.004431 0.000000 0
0.004435 0.000000 0
0.004439 0.000000 0
0.004443 0.000000 0
0.004447 0.000000 0
0.004451 0.000000 0
0.004455 0.000000 0
0.004459 0.000000 0
0.004463 0.000000 0
0.004467 0.000000 0
0.004471 0.000000 0
0.004474 0.000000 0
0.004477 0.000000 0
0.004480 0.000000 0
0.004481 0.000000 0
0.004474 0.000000 0
0.004486 0.000000 0
1.000000 0.000060 0
0.974778 -0.020194 0
0.974912 -0.031572 0
0.982993 -0.039930 0
0.998559 -0.047048 0
1.021317 -0.053292 0
1.050675 -0.058330 0
1.085207 -0.061404 0
1.122286 -0.061590 0
1.157748 -0.058450 0
1.187538 -0.052470 0
1.208863 -0.044734 0
1.220420 -0.036467 0
1.222241 -0.028747 0
1.215385 -0.022385 0
1.201647 -0.017870 0
1.183147 -0.015341 0
1.161885 -0.014557 0
1.139453 -0.014938 0
1.116911 -0.015654 0
1.094822 -0.015711 0
1.073354 -0.014198 0
1.052370 -0.010743 0
1.031588 -0.005933 0
1.010852 -0.001241 0
0.990303 0.001951 0
0.970379 0.003379 0
0.951622 0.003496 0
0.934423 0.002710 0
0.918957 0.001260 0
0.905217 -0.000812 0
0.893056 -0.003322 0
0.882281 -0.005856 0
0.872668 -0.008102 0
0.863977 -0.009923 0
0.855978 -0.011310 0
0.848470 -0.012312 0
0.841286 -0.012998 0
0.834295 -0.013442 0
0.827402 -0.013706 0
0.820536 -0.013840 0
0.813650 -0.013884 0
0.806713 -0.013869 0
0.799706 -0.013815 0
0.792619 -0.013740 0
0.785450 -0.013653 0
0.778199 -0.013563 0
0.770870 -0.013474 0
0.763468 -0.013391 0
0.755999 -0.013313 0
0.748470 -0.013243 0
0.740887 -0.013181 0
0.733257 -0.013126 0
0.725586 -0.013078 0
0.717878 -0.013037 0
0.710139 -0.013002 0
0.702373 -0.012972 0
0.694584 -0.012947 0
0.686776 -0.012926 0
0.678951 -0.012909 0
0.671112 -0.012895 0
0.663262 -0.012884 0
0.655402 -0.012875 0
0.647534 -0.012868 0
0.639659 -0.012863 0
0.631780 -0.012859 0
0.623896 -0.012856 0
0.616009 -0.012855 0
0.608119 -0.012854 0
0.600228 -0.012854 0
0.592335 -0.012855 0
0.584441 -0.012856 0
0.576547 -0.012857 0
0.568653 -0.012859 0
0.560759 -0.012861 0
0.552865 -0.012863 0
0.544972 -0.012865 0
0.537080 -0.012868 0
0.529189 -0.012870 0
0.521298 -0.012873 0
0.513409 -0.012875 0
0.505521 -0.012878 0
0.497635 -0.012881 0
0.489750 -0.012884 0
0.481866 -0.012887 0
0.473985 -0.012890 0
0.466106 -0.012893 0
0.458229 -0.012896 0
0.450355 -0.012900 0
0.442484 -0.012905 0
0.434617 -0.012910 0
0.426754 -0.012915 0
0.418896 -0.012922 0
0.411045 -0.012930 0
0.403202 -0.012940 0
0.395369 -0.012950 0
0.387549 -0.012959 0
0.379744 -0.012950 0
0.371961 -0.012850 0
0.364238 -0.012995 0
0.356511 -0.013327 0
1.000000 0.000034 0
0.976500 -0.019260 0
0.973373 -0.036174 0
0.976436 -0.051605 0
0.986787 -0.066282 0
1.005159 -0.080074 0
1.031780 -0.091847 0
1.065713 -0.099569 0
1.104344 -0.100500 0
1.140990 -0.093210 0
1.169762 -0.079073 0
1.187341 -0.060840 0
1.192409 -0.041336 0
1.185132 -0.022923 0
1.166787 -0.007364 0
1.139359 0.004280 0
1.105139 0.011803 0
1.066440 0.015735 0
1.025300 0.017016 0
0.983400 0.016673 0
0.942220 0.015598 0
0.903293 0.014493 0
0.868223 0.013808 0
0.838368 0.013559 0
0.814346 0.013325 0
0.795752 0.012514 0
0.781613 0.010723 0
0.771048 0.007998 0
0.763274 0.004706 0
0.757564 0.001247 0
0.753204 -0.002058 0
0.749448 -0.005023 0
0.745795 -0.007571 0
0.741997 -0.009655 0
0.737958 -0.011270 0
0.733660 -0.012452 0
0.729115 -0.013267 0
0.724345 -0.013785 0
0.719374 -0.014076 0
0.714226 -0.014200 0
0.708920 -0.014208 0
0.703475 -0.014136 0
0.697905 -0.014015 0
0.692226 -0.013866 0
0.686449 -0.013704 0
0.680586 -0.013540 0
0.674646 -0.013380 0
0.668639 -0.013229 0
0.662573 -0.013089 0
0.656453 -0.012962 0
0.650288 -0.012848 0
0.644082 -0.012747 0
0.637841 -0.012658 0
0.631569 -0.012581 0
0.625269 -0.012513 0
0.618946 -0.012455 0
0.612602 -0.012406 0
0.606240 -0.012363 0
0.599862 -0.012327 0
0.593471 -0.012297 0
0.587067 -0.012271 0
0.580654 -0.012250 0
0.574231 -0.012233 0
0.567801 -0.012218 0
0.561364 -0.012207 0
0.554921 -0.012197 0
0.548473 -0.012190 0
0.542021 -0.012184 0
0.535565 -0.012180 0
0.529106 -0.012177 0
0.522644 -0.012175 0
0.516180 -0.012174 0
0.509713 -0.012173 0
0.503245 -0.012173 0
0.496775 -0.012174 0
0.490304 -0.012175 0
0.483832 -0.012176 0
0.477360 -0.012178 0
0.470887 -0.012180 0
0.464413 -0.012182 0
0.457939 -0.012184 0
0.451465 -0.012187 0
0.444991 -0.012190 0
0.438518 -0.012193 0
0.432045 -0.012197 0
0.425572 -0.012201 0
0.419101 -0.012206 0
0.412631 -0.012211 0
0.406163 -0.012217 0
0.399697 -0.012224 0
0.393234 -0.012232 0
0.386773 -0.012242 0
0.380317 -0.012253 0
0.373867 -0.012268 0
0.367423 -0.012286 0
0.360988 -0.012308 0
0.354567 -0.012337 0
0.348168 -0.012374 0
0.341819 -0.012455 0
0.335635 -0.012512 0
0.329135 -0.012603 0
1.000000 0.000029 0
0.978695 -0.021525 0
0.977374 -0.043077 0
0.981483 -0.064912 0
0.992749 -0.087340 0
1.012950 -0.109855 0
1.043708 -0.130454 0
1.085429 -0.145536 0
1.137120 -0.148436 0
1.184990 -0.135436 0
1.220487 -0.110390 0
1.241113 -0.078950 0
1.246469 -0.045827 0
1.237187 -0.014694 0
1.214937 0.011819 0
1.181744 0.032209 0
1.140217 0.046009 0
1.093267 0.053713 0
1.043712 0.056533 0
0.994001 0.055857 0
0.946166 0.052827 0
0.901953 0.048230 0
0.862911 0.042612 0
0.830252 0.036375 0
0.804529 0.029806 0
0.785466 0.023114 0
0.772065 0.016514 0
0.762951 0.010266 0
0.756782 0.004625 0
0.752438 -0.000239 0
0.749071 -0.004265 0
0.746106 -0.007482 0
0.743151 -0.009974 0
0.739977 -0.011834 0
0.736478 -0.013156 0
0.732623 -0.014036 0
0.728427 -0.014566 0
0.723920 -0.014827 0
0.719139 -0.014893 0
0.714123 -0.014821 0
0.708904 -0.014658 0
0.703511 -0.014439 0
0.697970 -0.014189 0
0.692301 -0.013929 0
0.686523 -0.013669 0
0.680652 -0.013420 0
0.674699 -0.013186 0
0.668676 -0.012970 0
0.662593 -0.012774 0
0.656458 -0.012598 0
0.650277 -0.012442 0
0.644057 -0.012303 0
0.637802 -0.012182 0
0.631518 -0.012076 0
0.625209 -0.011984 0
0.618876 -0.011904 0
0.612525 -0.011836 0
0.606157 -0.011777 0
0.599774 -0.011727 0
0.593378 -0.011684 0
0.586972 -0.011648 0
0.580556 -0.011617 0
0.574132 -0.011592 0
0.567700 -0.011571 0
0.561262 -0.011553 0
0.554819 -0.011538 0
0.548372 -0.011526 0
0.541920 -0.011517 0
0.535465 -0.011509 0
0.529007 -0.011503 0
0.522546 -0.011498 0
0.516083 -0.011495 0
0.509618 -0.011493 0
0.503151 -0.011491 0
0.496683 -0.011491 0
0.490214 -0.011490 0
0.483744 -0.011491 0
0.477273 -0.011492 0
0.470802 -0.011493 0
0.464330 -0.011495 0
0.457858 -0.011498 0
0.451386 -0.011500 0
0.444914 -0.011504 0
0.438442 -0.011507 0
0.431971 -0.011512 0
0.425500 -0.011517 0
0.419031 -0.011522 0
0.412562 -0.011529 0
0.406095 -0.011537 0
0.399630 -0.011546 0
0.393167 -0.011557 0
0.386707 -0.011570 0
0.380250 -0.011586 0
0.373798 -0.011606 0
0.367352 -0.011632 0
0.360912 -0.011665 0
0.354483 -0.011709 0
0.348067 -0.011773 0
0.341670 -0.011887 0
0.335284 -0.011882 0
0.328789 -0.011889 0
1.000000 0.000032 0
0.979036 -0.024592 0
0.977697 -0.050530 0
0.981147 -0.078549 0
0.991585 -0.109318 0
1.012035 -0.142602 0
1.046413 -0.175896 0
1.098162 -0.204550 0
1.172830 -0.211630 0
1.234728 -0.188146 0
1.274519 -0.146764 0
1.295536 -0.098391 0
1.299871 -0.048979 0
1.288010 -0.002960 0
1.260990 0.036509 0
1.220980 0.067431 0
1.171207 0.088711 0
1.115306 0.100671 0
1.056852 0.104714 0
0.999034 0.102650 0
0.944513 0.096077 0
0.895432 0.086180 0
0.853415 0.073940 0
0.819437 0.060372 0
0.793635 0.046542 0
0.775287 0.033408 0
0.763043 0.021669 0
0.755293 0.011712 0
0.750522 0.003650 0
0.747488 -0.002612 0
0.745281 -0.007295 0
0.743288 -0.010672 0
0.741129 -0.013012 0
0.738594 -0.014551 0
0.735599 -0.015485 0
0.732131 -0.015971 0
0.728223 -0.016132 0
0.723922 -0.016067 0
0.719284 -0.015848 0
0.714360 -0.015534 0
0.709195 -0.015165 0
0.703828 -0.014772 0
0.698294 -0.014375 0
0.692619 -0.013989 0
0.686826 -0.013624 0
0.680934 -0.013285 0
0.674958 -0.012974 0
0.668911 -0.012692 0
0.662803 -0.012440 0
0.656645 -0.012215 0
0.650442 -0.012017 0
0.644201 -0.011842 0
0.637929 -0.011690 0
0.631628 -0.011557 0
0.625303 -0.011441 0
0.618958 -0.011342 0
0.612595 -0.011256 0
0.606217 -0.011182 0
0.599825 -0.011119 0
0.593422 -0.011065 0
0.587009 -0.011019 0
0.580587 -0.010980 0
0.574157 -0.010947 0
0.567722 -0.010919 0
0.561280 -0.010896 0
0.554834 -0.010877 0
0.548384 -0.010861 0
0.541930 -0.010847 0
0.535472 -0.010837 0
0.529012 -0.010828 0
0.522550 -0.010821 0
0.516086 -0.010816 0
0.509620 -0.010812 0
0.503152 -0.010809 0
0.496684 -0.010807 0
0.490214 -0.010806 0
0.483743 -0.010805 0
0.477272 -0.010806 0
0.470800 -0.010807 0
0.464328 -0.010808 0
0.457855 -0.010811 0
0.451383 -0.010813 0
0.444910 -0.010817 0
0.438438 -0.010821 0
0.431966 -0.010826 0
0.425495 -0.010831 0
0.419024 -0.010838 0
0.412554 -0.010846 0
0.406086 -0.010855 0
0.399619 -0.010866 0
0.393154 -0.010879 0
0.386691 -0.010895 0
0.380231 -0.010915 0
0.373773 -0.010939 0
0.367320 -0.010970 0
0.360871 -0.011010 0
0.354427 -0.011062 0
0.347988 -0.011132 0
0.341548 -0.011242 0
0.335091 -0.011201 0
0.328597 -0.011175 0
1.000000 0.000037 0
0.978608 -0.027180 0
0.975694 -0.056757 0
0.976244 -0.090370 0
0.982725 -0.129796 0
0.999360 -0.176252 0
1.033209 -0.228150 0
1.093895 -0.283523 0
1.205527 -0.296570 0
1.273289 -0.248694 0
1.302669 -0.182767 0
1.315271 -0.115872 0
1.317084 -0.049869 0
1.303765 0.012618 0
1.273118 0.067280 0
1.227428 0.110422 0
1.170844 0.140113 0
1.107967 0.156499 0
1.043155 0.161236 0
0.980187 0.156627 0
0.922158 0.144860 0
0.871430 0.127758 0
0.829548 0.107037 0
0.797136 0.084587 0
0.773856 0.062387 0
0.758522 0.042138 0
0.749413 0.024939 0
0.744649 0.011217 0
0.742527 0.000861 0
0.741713 -0.006568 0
0.741277 -0.011634 0
0.740639 -0.014899 0
0.739482 -0.016850 0
0.737673 -0.017873 0
0.735192 -0.018262 0
0.732080 -0.018230 0
0.728411 -0.017926 0
0.724263 -0.017458 0
0.719716 -0.016900 0
0.714837 -0.016301 0
0.709687 -0.015696 0
0.704314 -0.015108 0
0.698759 -0.014550 0
0.693055 -0.014030 0
0.687228 -0.013554 0
0.681300 -0.013121 0
0.675288 -0.012732 0
0.669206 -0.012386 0
0.663065 -0.012078 0
0.656876 -0.011807 0
0.650645 -0.011568 0
0.644379 -0.011360 0
0.638083 -0.011178 0
0.631762 -0.011020 0
0.625419 -0.010884 0
0.619058 -0.010766 0
0.612681 -0.010664 0
0.606290 -0.010577 0
0.599888 -0.010502 0
0.593475 -0.010438 0
0.587054 -0.010383 0
0.580625 -0.010336 0
0.574190 -0.010297 0
0.567749 -0.010263 0
0.561303 -0.010235 0
0.554853 -0.010212 0
0.548399 -0.010192 0
0.541942 -0.010176 0
0.535483 -0.010162 0
0.529021 -0.010151 0
0.522557 -0.010142 0
0.516091 -0.010135 0
0.509624 -0.010129 0
0.503155 -0.010125 0
0.496685 -0.010122 0
0.490215 -0.010120 0
0.483743 -0.010119 0
0.477271 -0.010119 0
0.470799 -0.010120 0
0.464326 -0.010121 0
0.457853 -0.010123 0
0.451380 -0.010126 0
0.444906 -0.010129 0
0.438433 -0.010133 0
0.431960 -0.010139 0
0.425488 -0.010145 0
0.419016 -0.010152 0
0.412545 -0.010161 0
0.406075 -0.010171 0
0.399606 -0.010184 0
0.393138 -0.010199 0
0.386672 -0.010217 0
0.380208 -0.010239 0
0.373745 -0.010266 0
0.367284 -0.010300 0
0.360825 -0.010342 0
0.354367 -0.010396 0
0.347908 -0.010464 0
0.341442 -0.010561 0
0.334957 -0.010501 0
0.328462 -0.010461 0
1.000000 0.000045 0
0.977677 -0.028244 0
0.971745 -0.059735 0
0.966757 -0.097149 0
0.964750 -0.144003 0
0.970072 -0.204654 0
0.992168 -0.281999 0
1.049981 -0.388437 0
1.206708 -0.402594 0
1.246691 -0.296857 0
1.230558 -0.200315 0
1.217627 -0.124376 0
1.217723 -0.049042 0
1.210305 0.029437 0
1.182603 0.101277 0
1.138161 0.158136 0
1.082663 0.196603 0
1.021617 0.216791 0
0.959948 0.220925 0
0.901805 0.212077 0
0.850381 0.193264 0
0.807832 0.167221 0
0.775195 0.136665 0
0.752387 0.104495 0
0.738367 0.073587 0
0.731392 0.046282 0
0.729428 0.023972 0
0.730470 0.007029 0
0.732868 -0.004983 0
0.735436 -0.012931 0
0.737438 -0.017790 0
0.738497 -0.020446 0
0.738485 -0.021615 0
0.737424 -0.021830 0
0.735415 -0.021462 0
0.732588 -0.020759 0
0.729077 -0.019885 0
0.725005 -0.018941 0
0.720478 -0.017992 0
0.715586 -0.017074 0
0.710402 -0.016211 0
0.704982 -0.015413 0
0.699374 -0.014685 0
0.693614 -0.014028 0
0.687732 -0.013439 0
0.681750 -0.012914 0
0.675688 -0.012449 0
0.669559 -0.012040 0
0.663376 -0.011680 0
0.657148 -0.011365 0
0.650883 -0.011090 0
0.644586 -0.010850 0
0.638263 -0.010643 0
0.631918 -0.010463 0
0.625554 -0.010307 0
0.619174 -0.010173 0
0.612780 -0.010058 0
0.606375 -0.009959 0
0.599961 -0.009874 0
0.593537 -0.009801 0
0.587107 -0.009739 0
0.580670 -0.009686 0
0.574228 -0.009641 0
0.567781 -0.009603 0
0.561330 -0.009570 0
0.554876 -0.009543 0
0.548418 -0.009520 0
0.541958 -0.009501 0
0.535496 -0.009485 0
0.529031 -0.009472 0
0.522565 -0.009461 0
0.516098 -0.009453 0
0.509629 -0.009446 0
0.503159 -0.009441 0
0.496688 -0.009437 0
0.490216 -0.009434 0
0.483744 -0.009432 0
0.477271 -0.009431 0
0.470798 -0.009432 0
0.464324 -0.009433 0
0.457850 -0.009435 0
0.451376 -0.009437 0
0.444902 -0.009441 0
0.438428 -0.009445 0
0.431955 -0.009451 0
0.425481 -0.009457 0
0.419008 -0.009465 0
0.412535 -0.009475 0
0.406063 -0.009486 0
0.399592 -0.009500 0
0.393121 -0.009516 0
0.386652 -0.009535 0
0.380183 -0.009558 0
0.373714 -0.009587 0
0.367247 -0.009621 0
0.360779 -0.009663 0
0.354309 -0.009715 0
0.347835 -0.009777 0
0.341353 -0.009862 0
0.334855 -0.009792 0
0.328359 -0.009746 0
1.000000 0.000053 0
0.976429 -0.026883 0
0.966429 -0.057406 0
0.953638 -0.094944 0
0.938399 -0.144680 0
0.922369 -0.215238 0
0.911693 -0.319628 0
0.926849 -0.509632 0
1.070544 -0.504849 0
1.046434 -0.284113 0
0.933013 -0.165272 0
0.872857 -0.114605 0
0.875053 -0.054117 0
0.902793 0.036169 0
0.898775 0.127855 0
0.877427 0.198794 0
0.845326 0.245088 0
0.807824 0.267644 0
0.769933 0.269478 0
0.735991 0.254625 0
0.709077 0.227264 0
0.690919 0.191375 0
0.681773 0.150913 0
0.680567 0.109846 0
0.685398 0.071813 0
0.693907 0.039508 0
0.703976 0.014292 0
0.713941 -0.003792 0
0.722700 -0.015675 0
0.729636 -0.022707 0
0.734528 -0.026264 0
0.737429 -0.027515 0
0.738540 -0.027346 0
0.738126 -0.026373 0
0.736457 -0.024995 0
0.733780 -0.023461 0
0.730304 -0.021912 0
0.726201 -0.020429 0
0.721607 -0.019051 0
0.716629 -0.017794 0
0.711351 -0.016661 0
0.705838 -0.015649 0
0.700140 -0.014751 0
0.694295 -0.013958 0
0.688334 -0.013260 0
0.682281 -0.012647 0
0.676154 -0.012111 0
0.669968 -0.011644 0
0.663733 -0.011236 0
0.657458 -0.010883 0
0.651152 -0.010575 0
0.644819 -0.010309 0
0.638465 -0.010079 0
0.632092 -0.009881 0
0.625704 -0.009710 0
0.619303 -0.009562 0
0.612891 -0.009436 0
0.606471 -0.009327 0
0.600042 -0.009233 0
0.593607 -0.009154 0
0.587166 -0.009085 0
0.580721 -0.009027 0
0.574271 -0.008978 0
0.567817 -0.008936 0
0.561361 -0.008900 0
0.554901 -0.008870 0
0.548440 -0.008844 0
0.541976 -0.008823 0
0.535511 -0.008805 0
0.529044 -0.008791 0
0.522575 -0.008779 0
0.516106 -0.008769 0
0.509635 -0.008761 0
0.503164 -0.008755 0
0.496691 -0.008750 0
0.490219 -0.008746 0
0.483745 -0.008744 0
0.477271 -0.008743 0
0.470797 -0.008743 0
0.464323 -0.008744 0
0.457848 -0.008745 0
0.451373 -0.008748 0
0.444898 -0.008751 0
0.438423 -0.008756 0
0.431948 -0.008762 0
0.425474 -0.008769 0
0.418999 -0.008777 0
0.412525 -0.008787 0
0.406051 -0.008798 0
0.399577 -0.008812 0
0.393103 -0.008829 0
0.386630 -0.008849 0
0.380157 -0.008873 0
0.373684 -0.008901 0
0.367209 -0.008935 0
0.360734 -0.008975 0
0.354255 -0.009023 0
0.347771 -0.009078 0
0.341279 -0.009151 0
0.334773 -0.009078 0
0.328277 -0.009030 0
1.000000 0.000060 0
0.975169 -0.022631 0
0.961012 -0.048512 0
0.939940 -0.080687 0
0.909579 -0.124303 0
0.865656 -0.189517 0
0.800466 -0.298048 0
0.701241 -0.558857 0
0.522266 -0.533748 0
-0.001244 -0.170895 0
0.354661 -0.038307 0
0.262548 -0.077985 0
0.304242 -0.090547 0
0.423142 -0.005853 0
0.471291 0.115074 0
0.492218 0.200016 0
0.500036 0.254637 0
0.502649 0.280615 0
0.505315 0.281189 0
0.511907 0.261364 0
0.524185 0.226768 0
0.542678 0.182956 0
0.566531 0.135448 0
0.593848 0.089301 0
0.622717 0.048677 0
0.650759 0.016134 0
0.675899 -0.007631 0
0.696921 -0.023265 0
0.713358 -0.032247 0
0.725335 -0.036329 0
0.733342 -0.037152 0
0.738033 -0.036027 0
0.740074 -0.033882 0
0.740067 -0.031316 0
0.738503 -0.028685 0
0.735769 -0.026175 0
0.732158 -0.023875 0
0.727887 -0.021813 0
0.723119 -0.019989 0
0.717972 -0.018388 0
0.712537 -0.016990 0
0.706880 -0.015771 0
0.701052 -0.014712 0
0.695093 -0.013792 0
0.689030 -0.012995 0
0.682887 -0.012303 0
0.676680 -0.011705 0
0.670424 -0.011188 0
0.664128 -0.010740 0
0.657801 -0.010354 0
0.651448 -0.010020 0
0.645075 -0.009733 0
0.638685 -0.009485 0
0.632282 -0.009272 0
0.625867 -0.009088 0
0.619443 -0.008931 0
0.613012 -0.008795 0
0.606574 -0.008679 0
0.600130 -0.008580 0
0.593682 -0.008495 0
0.587231 -0.008422 0
0.580775 -0.008360 0
0.574317 -0.008307 0
0.567857 -0.008262 0
0.561394 -0.008224 0
0.554929 -0.008192 0
0.548463 -0.008165 0
0.541996 -0.008142 0
0.535527 -0.008123 0
0.529057 -0.008107 0
0.522586 -0.008094 0
0.516115 -0.008083 0
0.509642 -0.008074 0
0.503169 -0.008067 0
0.496695 -0.008062 0
0.490221 -0.008058 0
0.483747 -0.008055 0
0.477272 -0.008054 0
0.470797 -0.008053 0
0.464321 -0.008054 0
0.457846 -0.008055 0
0.451370 -0.008058 0
0.444894 -0.008061 0
0.438418 -0.008066 0
0.431942 -0.008071 0
0.425466 -0.008078 0
0.418990 -0.008087 0
0.412514 -0.008097 0
0.406038 -0.008109 0
0.399562 -0.008123 0
0.393085 -0.008139 0
0.386609 -0.008159 0
0.380132 -0.008182 0
0.373653 -0.008209 0
0.367174 -0.008241 0
0.360692 -0.008279 0
0.354206 -0.008322 0
0.347714 -0.008371 0
0.341216 -0.008435 0
0.334706 -0.008361 0
0.328210 -0.008314 0
1.000000 0.000065 0
0.974285 -0.015853 0
0.957204 -0.033745 0
0.930300 -0.055080 0
0.889231 -0.081964 0
0.825309 -0.117694 0
0.720124 -0.166782 0
0.532866 -0.243001 0
0.074324 0.001177 0
-0.491881 0.149221 0
0.000000 0.000474 0
-0.047490 -0.096836 0
-0.100855 -0.226279 0
-0.004033 -0.142449 0
0.067725 0.047209 0
0.117798 0.158480 0
0.161060 0.223089 0
0.202979 0.250796 0
0.247718 0.248651 0
0.297549 0.224187 0
0.350808 0.184925 0
0.407043 0.137460 0
0.465230 0.088173 0
0.522367 0.042091 0
0.574746 0.003333 0
0.620336 -0.025244 0
0.658118 -0.043439 0
0.687915 -0.052820 0
0.710160 -0.055658 0
0.725733 -0.054261 0
0.735748 -0.050531 0
0.741373 -0.045817 0
0.743681 -0.040949 0
0.743567 -0.036370 0
0.741719 -0.032267 0
0.738636 -0.028685 0
0.734672 -0.025600 0
0.730072 -0.022959 0
0.725009 -0.020705 0
0.719603 -0.018781 0
0.713943 -0.017138 0
0.708092 -0.015734 0
0.702097 -0.014533 0
0.695993 -0.013505 0
0.689806 -0.012623 0
0.683555 -0.011867 0
0.677256 -0.011218 0
0.670920 -0.010661 0
0.664556 -0.010183 0
0.658169 -0.009772 0
0.651764 -0.009419 0
0.645347 -0.009116 0