# vtk DataFile Version 2.0
generated by CFD-lab course output (written by Tobias Neckel) 
ASCII

DATASET STRUCTURED_GRID
DIMENSIONS  101 21 1 
POINTS 2121 float

0.000000 0.000000 0
0.100000 0.000000 0
0.200000 0.000000 0
0.300000 0.000000 0
0.400000 0.000000 0
0.500000 0.000000 0
0.600000 0.000000 0
0.700000 0.000000 0
0.800000 0.000000 0
0.900000 0.000000 0
1.000000 0.000000 0
1.100000 0.000000 0
1.200000 0.000000 0
1.300000 0.000000 0
1.400000 0.000000 0
1.500000 0.000000 0
1.600000 0.000000 0
1.700000 0.000000 0
1.800000 0.000000 0
1.900000 0.000000 0
2.000000 0.000000 0
2.100000 0.000000 0
2.200000 0.000000 0
2.300000 0.000000 0
2.400000 0.000000 0
2.500000 0.000000 0
2.600000 0.000000 0
2.700000 0.000000 0
2.800000 0.000000 0
2.900000 0.000000 0
3.000000 0.000000 0
3.100000 0.000000 0
3.200000 0.000000 0
3.300000 0.000000 0
3.400000 0.000000 0
3.500000 0.000000 0
3.600000 0.000000 0
3.700000 0.000000 0
3.800000 0.000000 0
3.900000 0.000000 0
4.000000 0.000000 0
4.100000 0.000000 0
4.200000 0.000000 0
4.300000 0.000000 0
4.400000 0.000000 0
4.500000 0.000000 0
4.600000 0.000000 0
4.700000 0.000000 0
4.800000 0.000000 0
4.900000 0.000000 0
5.000000 0.000000 0
5.100000 0.000000 0
5.200000 0.000000 0
5.300000 0.000000 0
5.400000 0.000000 0
5.500000 0.000000 0
5.600000 0.000000 0
5.700000 0.000000 0
5.800000 0.000000 0
5.900000 0.000000 0
6.000000 0.000000 0
6.100000 0.000000 0
6.200000 0.000000 0
6.300000 0.000000 0
6.400000 0.000000 0
6.500000 0.000000 0
6.600000 0.000000 0
6.700000 0.000000 0
6.800000 0.000000 0
6.900000 0.000000 0
7.000000 0.000000 0
7.100000 0.000000 0
7.200000 0.000000 0
7.300000 0.000000 0
7.400000 0.000000 0
7.500000 0.000000 0
7.600000 0.000000 0
7.700000 0.000000 0
7.800000 0.000000 0
7.900000 0.000000 0
8.000000 0.000000 0
8.100000 0.000000 0
8.200000 0.000000 0
8.300000 0.000000 0
8.400000 0.000000 0
8.500000 0.000000 0
8.600000 0.000000 0
8.700000 0.000000 0
8.800000 0.000000 0
8.900000 0.000000 0
9.000000 0.000000 0
9.100000 0.000000 0
9.200000 0.000000 0
9.300000 0.000000 0
9.400000 0.000000 0
9.500000 0.000000 0
9.600000 0.000000 0
9.700000 0.000000 0
9.800000 0.000000 0
9.900000 0.000000 0
10.000000 0.000000 0
0.000000 0.100000 0
0.100000 0.100000 0
0.200000 0.100000 0
0.300000 0.100000 0
0.400000 0.100000 0
0.500000 0.100000 0
0.600000 0.100000 0
0.700000 0.100000 0
0.800000 0.100000 0
0.900000 0.100000 0
1.000000 0.100000 0
1.100000 0.100000 0
1.200000 0.100000 0
1.300000 0.100000 0
1.400000 0.100000 0
1.500000 0.100000 0
1.600000 0.100000 0
1.700000 0.100000 0
1.800000 0.100000 0
1.900000 0.100000 0
2.000000 0.100000 0
2.100000 0.100000 0
2.200000 0.100000 0
2.300000 0.100000 0
2.400000 0.100000 0
2.500000 0.100000 0
2.600000 0.100000 0
2.700000 0.100000 0
2.800000 0.100000 0
2.900000 0.100000 0
3.000000 0.100000 0
3.100000 0.100000 0
3.200000 0.100000 0
3.300000 0.100000 0
3.400000 0.100000 0
3.500000 0.100000 0
3.600000 0.100000 0
3.700000 0.100000 0
3.800000 0.100000 0
3.900000 0.100000 0
4.000000 0.100000 0
4.100000 0.100000 0
4.200000 0.100000 0
4.300000 0.100000 0
4.400000 0.100000 0
4.500000 0.100000 0
4.600000 0.100000 0
4.700000 0.100000 0
4.800000 0.100000 0
4.900000 0.100000 0
5.000000 0.100000 0
5.100000 0.100000 0
5.200000 0.100000 0
5.300000 0.100000 0
5.400000 0.100000 0
5.500000 0.100000 0
5.600000 0.100000 0
5.700000 0.100000 0
5.800000 0.100000 0
5.900000 0.100000 0
6.000000 0.100000 0
6.100000 0.100000 0
6.200000 0.100000 0
6.300000 0.100000 0
6.400000 0.100000 0
6.500000 0.100000 0
6.600000 0.100000 0
6.700000 0.100000 0
6.800000 0.100000 0
6.900000 0.100000 0
7.000000 0.100000 0
7.100000 0.100000 0
7.200000 0.100000 0
7.300000 0.100000 0
7.400000 0.100000 0
7.500000 0.100000 0
7.600000 0.100000 0
7.700000 0.100000 0
7.800000 0.100000 0
7.900000 0.100000 0
8.000000 0.100000 0
8.100000 0.100000 0
8.200000 0.100000 0
8.300000 0.100000 0
8.400000 0.100000 0
8.500000 0.100000 0
8.600000 0.100000 0
8.700000 0.100000 0
8.800000 0.100000 0
8.900000 0.100000 0
9.000000 0.100000 0
9.100000 0.100000 0
9.200000 0.100000 0
9.300000 0.100000 0
9.400000 0.100000 0
9.500000 0.100000 0
9.600000 0.100000 0
9.700000 0.100000 0
9.800000 0.100000 0
9.900000 0.100000 0
10.000000 0.100000 0
0.000000 0.200000 0
0.100000 0.200000 0
0.200000 0.200000 0
0.300000 0.200000 0
0.400000 0.200000 0
0.500000 0.200000 0
0.600000 0.200000 0
0.700000 0.200000 0
0.800000 0.200000 0
0.900000 0.200000 0
1.000000 0.200000 0
1.100000 0.200000 0
1.200000 0.200000 0
1.300000 0.200000 0
1.400000 0.200000 0
1.500000 0.200000 0
1.600000 0.200000 0
1.700000 0.200000 0
1.800000 0.200000 0
1.900000 0.200000 0
2.000000 0.200000 0
2.100000 0.200000 0
2.200000 0.200000 0
2.300000 0.200000 0
2.400000 0.200000 0
2.500000 0.200000 0
2.600000 0.200000 0
2.700000 0.200000 0
2.800000 0.200000 0
2.900000 0.200000 0
3.000000 0.200000 0
3.100000 0.200000 0
3.200000 0.200000 0
3.300000 0.200000 0
3.400000 0.200000 0
3.500000 0.200000 0
3.600000 0.200000 0
3.700000 0.200000 0
3.800000 0.200000 0
3.900000 0.200000 0
4.000000 0.200000 0
4.100000 0.200000 0
4.200000 0.200000 0
4.300000 0.200000 0
4.400000 0.200000 0
4.500000 0.200000 0
4.600000 0.200000 0
4.700000 0.200000 0
4.800000 0.200000 0
4.900000 0.200000 0
5.000000 0.200000 0
5.100000 0.200000 0
5.200000 0.200000 0
5.300000 0.200000 0
5.400000 0.200000 0
5.500000 0.200000 0
5.600000 0.200000 0
5.700000 0.200000 0
5.800000 0.200000 0
5.900000 0.200000 0
6.000000 0.200000 0
6.100000 0.200000 0
6.200000 0.200000 0
6.300000 0.200000 0
6.400000 0.200000 0
6.500000 0.200000 0
6.600000 0.200000 0
6.700000 0.200000 0
6.800000 0.200000 0
6.900000 0.200000 0
7.000000 0.200000 0
7.100000 0.200000 0
7.200000 0.200000 0
7.300000 0.200000 0
7.400000 0.200000 0
7.500000 0.200000 0
7.600000 0.200000 0
7.700000 0.200000 0
7.800000 0.200000 0
7.900000 0.200000 0
8.000000 0.200000 0
8.100000 0.200000 0
8.200000 0.200000 0
8.300000 0.200000 0
8.400000 0.200000 0
8.500000 0.200000 0
8.600000 0.200000 0
8.700000 0.200000 0
8.800000 0.200000 0
8.900000 0.200000 0
9.000000 0.200000 0
9.100000 0.200000 0
9.200000 0.200000 0
9.300000 0.200000 0
9.400000 0.200000 0
9.500000 0.200000 0
9.600000 0.200000 0
9.700000 0.200000 0
9.800000 0.200000 0
9.900000 0.200000 0
10.000000 0.200000 0
0.000000 0.300000 0
0.100000 0.300000 0
0.200000 0.300000 0
0.300000 0.300000 0
0.400000 0.300000 0
0.500000 0.300000 0
0.600000 0.300000 0
0.700000 0.300000 0
0.800000 0.300000 0
0.900000 0.300000 0
1.000000 0.300000 0
1.100000 0.300000 0
1.200000 0.300000 0
1.300000 0.300000 0
1.400000 0.300000 0
1.500000 0.300000 0
1.600000 0.300000 0
1.700000 0.300000 0
1.800000 0.300000 0
1.900000 0.300000 0
2.000000 0.300000 0
2.100000 0.300000 0
2.200000 0.300000 0
2.300000 0.300000 0
2.400000 0.300000 0
2.500000 0.300000 0
2.600000 0.300000 0
2.700000 0.300000 0
2.800000 0.300000 0
2.900000 0.300000 0
3.000000 0.300000 0
3.100000 0.300000 0
3.200000 0.300000 0
3.300000 0.300000 0
3.400000 0.300000 0
3.500000 0.300000 0
3.600000 0.300000 0
3.700000 0.300000 0
3.800000 0.300000 0
3.900000 0.300000 0
4.000000 0.300000 0
4.100000 0.300000 0
4.200000 0.300000 0
4.300000 0.300000 0
4.400000 0.300000 0
4.500000 0.300000 0
4.600000 0.300000 0
4.700000 0.300000 0
4.800000 0.300000 0
4.900000 0.300000 0
5.000000 0.300000 0
5.100000 0.300000 0
5.200000 0.300000 0
5.300000 0.300000 0
5.400000 0.300000 0
5.500000 0.300000 0
5.600000 0.300000 0
5.700000 0.300000 0
5.800000 0.300000 0
5.900000 0.300000 0
6.000000 0.300000 0
6.100000 0.300000 0
6.200000 0.300000 0
6.300000 0.300000 0
6.400000 0.300000 0
6.500000 0.300000 0
6.600000 0.300000 0
6.700000 0.300000 0
6.800000 0.300000 0
6.900000 0.300000 0
7.000000 0.300000 0
7.100000 0.300000 0
7.200000 0.300000 0
7.300000 0.300000 0
7.400000 0.300000 0
7.500000 0.300000 0
7.600000 0.300000 0
7.700000 0.300000 0
7.800000 0.300000 0
7.900000 0.300000 0
8.000000 0.300000 0
8.100000 0.300000 0
8.200000 0.300000 0
8.300000 0.300000 0
8.400000 0.300000 0
8.500000 0.300000 0
8.600000 0.300000 0
8.700000 0.300000 0
8.800000 0.300000 0
8.900000 0.300000 0
9.000000 0.300000 0
9.100000 0.300000 0
9.200000 0.300000 0
9.300000 0.300000 0
9.400000 0.300000 0
9.500000 0.300000 0
9.600000 0.300000 0
9.700000 0.300000 0
9.800000 0.300000 0
9.900000 0.300000 0
10.000000 0.300000 0
0.000000 0.400000 0
0.100000 0.400000 0
0.200000 0.400000 0
0.300000 0.400000 0
0.400000 0.400000 0
0.500000 0.400000 0
0.600000 0.400000 0
0.700000 0.400000 0
0.800000 0.400000 0
0.900000 0.400000 0
1.000000 0.400000 0
1.100000 0.400000 0
1.200000 0.400000 0
1.300000 0.400000 0
1.400000 0.400000 0
1.500000 0.400000 0
1.600000 0.400000 0
1.700000 0.400000 0
1.800000 0.400000 0
1.900000 0.400000 0
2.000000 0.400000 0
2.100000 0.400000 0
2.200000 0.400000 0
2.300000 0.400000 0
2.400000 0.400000 0
2.500000 0.400000 0
2.600000 0.400000 0
2.700000 0.400000 0
2.800000 0.400000 0
2.900000 0.400000 0
3.000000 0.400000 0
3.100000 0.400000 0
3.200000 0.400000 0
3.300000 0.400000 0
3.400000 0.400000 0
3.500000 0.400000 0
3.600000 0.400000 0
3.700000 0.400000 0
3.800000 0.400000 0
3.900000 0.400000 0
4.000000 0.400000 0
4.100000 0.400000 0
4.200000 0.400000 0
4.300000 0.400000 0
4.400000 0.400000 0
4.500000 0.400000 0
4.600000 0.400000 0
4.700000 0.400000 0
4.800000 0.400000 0
4.900000 0.400000 0
5.000000 0.400000 0
5.100000 0.400000 0
5.200000 0.400000 0
5.300000 0.400000 0
5.400000 0.400000 0
5.500000 0.400000 0
5.600000 0.400000 0
5.700000 0.400000 0
5.800000 0.400000 0
5.900000 0.400000 0
6.000000 0.400000 0
6.100000 0.400000 0
6.200000 0.400000 0
6.300000 0.400000 0
6.400000 0.400000 0
6.500000 0.400000 0
6.600000 0.400000 0
6.700000 0.400000 0
6.800000 0.400000 0
6.900000 0.400000 0
7.000000 0.400000 0
7.100000 0.400000 0
7.200000 0.400000 0
7.300000 0.400000 0
7.400000 0.400000 0
7.500000 0.400000 0
7.600000 0.400000 0
7.700000 0.400000 0
7.800000 0.400000 0
7.900000 0.400000 0
8.000000 0.400000 0
8.100000 0.400000 0
8.200000 0.400000 0
8.300000 0.400000 0
8.400000 0.400000 0
8.500000 0.400000 0
8.600000 0.400000 0
[...]
POINT_DATA 2121 

VECTORS velocity float
0.500000 0.000000 0
-0.001119 0.000000 0
-0.002396 0.000000 0
-0.002388 0.000000 0
-0.001033 0.000000 0
0.000367 0.000000 0
0.001422 0.000000 0
0.002244 0.000000 0
0.002884 0.000000 0
0.003295 0.000000 0
0.003416 0.000000 0
0.003231 0.000000 0
0.002775 0.000000 0
0.002121 0.000000 0
0.001357 0.000000 0
0.000562 0.000000 0
-0.000201 0.000000 0
-0.000892 0.000000 0
-0.001494 0.000000 0
-0.002000 0.000000 0
-0.002418 0.000000 0
-0.002760 0.000000 0
-0.003039 0.000000 0
-0.003268 0.000000 0
-0.003458 0.000000 0
-0.003618 0.000000 0
-0.003756 0.000000 0
-0.003876 0.000000 0
-0.003982 0.000000 0
-0.004078 0.000000 0
-0.004164 0.000000 0
-0.004243 0.000000 0
-0.004315 0.000000 0
-0.004381 0.000000 0
-0.004440 0.000000 0
-0.004493 0.000000 0
-0.004540 0.000000 0
-0.004581 0.000000 0
-0.004615 0.000000 0
-0.004643 0.000000 0
-0.004665 0.000000 0
-0.004679 0.000000 0
-0.004687 0.000000 0
-0.004688 0.000000 0
-0.004682 0.000000 0
-0.004669 0.000000 0
-0.004648 0.000000 0
-0.004621 0.000000 0
-0.004586 0.000000 0
-0.004544 0.000000 0
-0.004494 0.000000 0
-0.004437 0.000000 0
-0.004373 0.000000 0
-0.004302 0.000000 0
-0.004223 0.000000 0
-0.004137 0.000000 0
-0.004044 0.000000 0
-0.003944 0.000000 0
-0.003837 0.000000 0
-0.003723 0.000000 0
-0.003602 0.000000 0
-0.003475 0.000000 0
-0.003340 0.000000 0
-0.003200 0.000000 0
-0.003052 0.000000 0
-0.002899 0.000000 0
-0.002739 0.000000 0
-0.002573 0.000000 0
-0.002402 0.000000 0
-0.002224 0.000000 0
-0.002041 0.000000 0
-0.001853 0.000000 0
-0.001659 0.000000 0
-0.001460 0.000000 0
-0.001256 0.000000 0
-0.001047 0.000000 0
-0.000834 0.000000 0
-0.000616 0.000000 0
-0.000394 0.000000 0
-0.000168 0.000000 0
0.000062 0.000000 0
0.000296 0.000000 0
0.000533 0.000000 0
0.000773 0.000000 0
0.001017 0.000000 0
0.001264 0.000000 0
0.001513 0.000000 0
0.001765 0.000000 0
0.002019 0.000000 0
0.002275 0.000000 0
0.002533 0.000000 0
0.002793 0.000000 0
0.003055 0.000000 0
0.003318 0.000000 0
0.003582 0.000000 0
0.003848 0.000000 0
0.004115 0.000000 0
0.004384 0.000000 0
0.004657 0.000000 0
0.004937 0.000000 0
0.005195 0.000000 0
1.000000 -0.000071 0
0.962841 -0.029530 0
0.964703 -0.046435 0
0.978781 -0.053499 0
0.997396 -0.053219 0
1.015979 -0.050526 0
1.033137 -0.047274 0
1.047440 -0.042691 0
1.056326 -0.036009 0
1.056878 -0.027657 0
1.047772 -0.019067 0
1.029853 -0.011797 0
1.005538 -0.006839 0
0.977787 -0.004431 0
0.949255 -0.004226 0
0.921870 -0.005583 0
0.896757 -0.007821 0
0.874369 -0.010383 0
0.854689 -0.012889 0
0.837436 -0.015118 0
0.822217 -0.016979 0
0.808618 -0.018461 0
0.796265 -0.019598 0
0.784840 -0.020444 0
0.774088 -0.021056 0
0.763811 -0.021488 0
0.753862 -0.021783 0
0.744131 -0.021979 0
0.734540 -0.022102 0
0.725034 -0.022174 0
0.715572 -0.022212 0
0.706131 -0.022225 0
0.696693 -0.022223 0
0.687247 -0.022212 0
0.677786 -0.022195 0
0.668308 -0.022175 0
0.658812 -0.022154 0
0.649296 -0.022134 0
0.639763 -0.022114 0
0.630214 -0.022096 0
0.620650 -0.022079 0
0.611073 -0.022064 0
0.601485 -0.022051 0
0.591887 -0.022039 0
0.582281 -0.022029 0
0.572668 -0.022020 0
0.563050 -0.022012 0
0.553427 -0.022005 0
0.543801 -0.021999 0
0.534172 -0.021994 0
0.524542 -0.021989 0
0.514910 -0.021985 0
0.505278 -0.021982 0
0.495646 -0.021979 0
0.486013 -0.021977 0
0.476382 -0.021974 0
0.466751 -0.021972 0
0.457121 -0.021971 0
0.447493 -0.021969 0
0.437866 -0.021967 0
0.428240 -0.021966 0
0.418616 -0.021965 0
0.408994 -0.021964 0
0.399374 -0.021962 0
0.389755 -0.021961 0
0.380138 -0.021960 0
0.370523 -0.021959 0
0.360910 -0.021958 0
0.351298 -0.021957 0
0.341689 -0.021956 0
0.332081 -0.021955 0
0.322474 -0.021954 0
0.312869 -0.021953 0
0.303266 -0.021952 0
0.293665 -0.021951 0
0.284064 -0.021950 0
0.274466 -0.021949 0
0.264868 -0.021948 0
0.255273 -0.021947 0
0.245678 -0.021946 0
0.236084 -0.021946 0
0.226492 -0.021945 0
0.216901 -0.021944 0
0.207311 -0.021943 0
0.197722 -0.021943 0
0.188134 -0.021942 0
0.178546 -0.021941 0
0.168960 -0.021941 0
0.159375 -0.021940 0
0.149790 -0.021940 0
0.140207 -0.021940 0
0.130625 -0.021940 0
0.121043 -0.021941 0
0.111464 -0.021942 0
0.101886 -0.021944 0
0.092310 -0.021947 0
0.082739 -0.021953 0
0.073173 -0.021966 0
0.063617 -0.021996 0
0.054079 -0.021912 0
0.044413 -0.022572 0
1.000000 0.000297 0
0.965097 -0.028687 0
0.961560 -0.056275 0
0.968415 -0.073028 0
0.982083 -0.077532 0
0.999124 -0.076073 0
1.017624 -0.071790 0
1.035302 -0.063517 0
1.048064 -0.049764 0
1.050360 -0.031768 0
1.040057 -0.013295 0
1.018851 0.001917 0
0.990578 0.011752 0
0.959379 0.015972 0
0.928507 0.015609 0
0.899981 0.012194 0
0.874712 0.007201 0
0.852834 0.001771 0
0.834027 -0.003361 0
0.817784 -0.007817 0
0.803565 -0.011467 0
0.790883 -0.014329 0
0.779333 -0.016498 0
0.768595 -0.018094 0
0.758427 -0.019238 0
0.748647 -0.020037 0
0.739126 -0.020578 0
0.729769 -0.020931 0
0.720511 -0.021150 0
0.711308 -0.021274 0
0.702128 -0.021335 0
0.692951 -0.021352 0
0.683766 -0.021342 0
0.674563 -0.021314 0
0.665340 -0.021277 0
0.656095 -0.021235 0
0.646827 -0.021192 0
0.637537 -0.021150 0
0.628228 -0.021110 0
0.618899 -0.021073 0
0.609554 -0.021039 0
0.600195 -0.021009 0
0.590822 -0.020982 0
0.581437 -0.020959 0
0.572043 -0.020938 0
0.562641 -0.020919 0
0.553231 -0.020904 0
0.543815 -0.020890 0
0.534394 -0.020878 0
0.524969 -0.020867 0
0.515540 -0.020858 0
0.506109 -0.020851 0
0.496675 -0.020844 0
0.487239 -0.020838 0
0.477802 -0.020833 0
0.468364 -0.020829 0
0.458925 -0.020825 0
0.449485 -0.020822 0
0.440045 -0.020819 0
0.430606 -0.020816 0
0.421166 -0.020814 0
0.411727 -0.020812 0
0.402288 -0.020810 0
0.392849 -0.020808 0
0.383411 -0.020806 0
0.373974 -0.020805 0
0.364537 -0.020804 0
0.355101 -0.020802 0
0.345666 -0.020801 0
0.336231 -0.020800 0
0.326797 -0.020799 0
0.317364 -0.020798 0
0.307932 -0.020797 0
0.298500 -0.020796 0
0.289069 -0.020795 0
0.279639 -0.020794 0
0.270210 -0.020793 0
0.260781 -0.020792 0
0.251353 -0.020791 0
0.241926 -0.020790 0
0.232500 -0.020789 0
0.223074 -0.020788 0
0.213649 -0.020788 0
0.204224 -0.020787 0
0.194800 -0.020787 0
0.185377 -0.020786 0
0.175954 -0.020786 0
0.166532 -0.020786 0
0.157111 -0.020785 0
0.147690 -0.020786 0
0.138270 -0.020786 0
0.128850 -0.020787 0
0.119432 -0.020788 0
0.110014 -0.020790 0
0.100598 -0.020794 0
0.091183 -0.020799 0
0.081769 -0.020809 0
0.072357 -0.020824 0
0.062945 -0.020851 0
0.053523 -0.020740 0
0.044074 -0.021341 0
1.000000 0.000593 0
0.968279 -0.031427 0
0.966126 -0.066443 0
0.971652 -0.090711 0
0.983574 -0.100616 0
1.000879 -0.102754 0
1.023123 -0.100139 0
1.048427 -0.089816 0
1.070778 -0.067751 0
1.077072 -0.036333 0
1.063910 -0.004240 0
1.035426 0.021001 0
0.998756 0.035954 0
0.960403 0.040963 0
0.924626 0.038496 0
0.893463 0.031537 0
0.867337 0.022653 0
0.845747 0.013630 0
0.827832 0.005491 0
0.812697 -0.001324 0
0.799573 -0.006745 0
0.787858 -0.010893 0
0.777105 -0.013972 0
0.766997 -0.016198 0
0.757309 -0.017767 0
0.747887 -0.018843 0
0.738626 -0.019560 0
0.729456 -0.020017 0
0.720329 -0.020291 0
0.711216 -0.020439 0
0.702096 -0.020501 0
0.692959 -0.020507 0
0.683797 -0.020477 0
0.674609 -0.020426 0
0.665393 -0.020363 0
0.656150 -0.020296 0
0.646881 -0.020229 0
0.637589 -0.020164 0
0.628276 -0.020103 0
0.618943 -0.020047 0
0.609594 -0.019996 0
0.600230 -0.019951 0
0.590853 -0.019911 0
0.581465 -0.019875 0
0.572067 -0.019844 0
0.562662 -0.019817 0
0.553249 -0.019793 0
0.543831 -0.019773 0
0.534408 -0.019755 0
0.524981 -0.019740 0
0.515550 -0.019726 0
0.506117 -0.019715 0
0.496682 -0.019705 0
0.487246 -0.019697 0
0.477808 -0.019689 0
0.468369 -0.019683 0
0.458929 -0.019677 0
0.449489 -0.019672 0
0.440049 -0.019668 0
0.430609 -0.019664 0
0.421169 -0.019661 0
0.411729 -0.019658 0
0.402290 -0.019656 0
0.392851 -0.019654 0
0.383413 -0.019652 0
0.373976 -0.019650 0
0.364539 -0.019648 0
0.355103 -0.019646 0
0.345667 -0.019645 0
0.336232 -0.019644 0
0.326799 -0.019642 0
0.317365 -0.019641 0
0.307933 -0.019640 0
0.298501 -0.019639 0
0.289071 -0.019638 0
0.279640 -0.019637 0
0.270211 -0.019636 0
0.260782 -0.019635 0
0.251355 -0.019634 0
0.241927 -0.019634 0
0.232501 -0.019633 0
0.223075 -0.019632 0
0.213650 -0.019632 0
0.204225 -0.019631 0
0.194801 -0.019631 0
0.185378 -0.019630 0
0.175955 -0.019630 0
0.166533 -0.019630 0
0.157111 -0.019630 0
0.147690 -0.019631 0
0.138269 -0.019632 0
0.128849 -0.019633 0
0.119430 -0.019635 0
0.110011 -0.019638 0
0.100593 -0.019642 0
0.091175 -0.019648 0
0.081758 -0.019658 0
0.072339 -0.019671 0
0.062917 -0.019691 0
0.053485 -0.019570 0
0.044050 -0.020127 0
1.000000 0.000838 0
0.969024 -0.035149 0
0.966536 -0.076338 0
0.970101 -0.107165 0
0.980019 -0.123447 0
0.997709 -0.132309 0
1.025544 -0.136024 0
1.064504 -0.127857 0
1.109424 -0.095092 0
1.123210 -0.041583 0
1.103099 0.011670 0
1.060212 0.050391 0
1.008630 0.070096 0
0.958862 0.073424 0
0.916144 0.065873 0
0.881917 0.052808 0
0.855427 0.038243 0
0.834992 0.024604 0
0.818861 0.013020 0
0.805603 0.003774 0
0.794175 -0.003294 0
0.783871 -0.008527 0
0.774235 -0.012300 0
0.764979 -0.014959 0
0.755926 -0.016787 0
0.746966 -0.018011 0
0.738037 -0.018801 0
0.729099 -0.019286 0
0.720134 -0.019560 0
0.711130 -0.019689 0
0.702082 -0.019724 0
0.692990 -0.019697 0
0.683856 -0.019633 0
0.674683 -0.019549 0
0.665473 -0.019454 0
0.656231 -0.019357 0
0.646959 -0.019263 0
0.637662 -0.019174 0
0.628343 -0.019091 0
0.619004 -0.019016 0
0.609648 -0.018948 0
0.600278 -0.018888 0
0.590895 -0.018835 0
0.581502 -0.018788 0
0.572100 -0.018747 0
0.562690 -0.018711 0
0.553274 -0.018680 0
0.543852 -0.018653 0
0.534426 -0.018630 0
0.524996 -0.018610 0
0.515564 -0.018593 0
0.506129 -0.018578 0
0.496692 -0.018565 0
0.487254 -0.018554 0
0.477815 -0.018544 0
0.468375 -0.018536 0
0.458934 -0.018529 0
0.449494 -0.018523 0
0.440053 -0.018517 0
0.430612 -0.018513 0
0.421172 -0.018508 0
0.411732 -0.018505 0
0.402292 -0.018502 0
0.392853 -0.018499 0
0.383415 -0.018497 0
0.373977 -0.018494 0
0.364540 -0.018492 0
0.355104 -0.018491 0
0.345668 -0.018489 0
0.336234 -0.018487 0
0.326800 -0.018486 0
0.317366 -0.018485 0
0.307934 -0.018484 0
0.298502 -0.018482 0
0.289071 -0.018481 0
0.279641 -0.018480 0
0.270212 -0.018480 0
0.260783 -0.018479 0
0.251355 -0.018478 0
0.241928 -0.018477 0
0.232501 -0.018477 0
0.223075 -0.018476 0
0.213650 -0.018475 0
0.204226 -0.018475 0
0.194801 -0.018475 0
0.185378 -0.018475 0
0.175955 -0.018474 0
0.166532 -0.018475 0
0.157110 -0.018475 0
0.147689 -0.018476 0
0.138268 -0.018477 0
0.128847 -0.018478 0
0.119427 -0.018480 0
0.110008 -0.018484 0
0.100588 -0.018488 0
0.091168 -0.018494 0
0.081748 -0.018502 0
0.072325 -0.018513 0
0.062899 -0.018526 0
0.053465 -0.018403 0
0.044040 -0.018924 0
1.000000 0.000996 0
0.968788 -0.038299 0
0.964078 -0.084210 0
0.963499 -0.120883 0
0.968946 -0.144912 0
0.984411 -0.164967 0
1.016834 -0.183621 0
1.075322 -0.190381 0
1.174225 -0.143141 0
1.201563 -0.046690 0
1.164676 0.042076 0
1.093566 0.098790 0
1.016658 0.120626 0
0.950267 0.116772 0
0.899169 0.098764 0
0.862637 0.075579 0
0.837465 0.052906 0
0.819931 0.033524 0
0.807020 0.018210 0
0.796680 0.006694 0
0.787653 -0.001679 0
0.779218 -0.007618 0
0.770986 -0.011743 0
0.762760 -0.014549 0
0.754449 -0.016412 0
0.746016 -0.017611 0
0.737456 -0.018348 0
0.728772 -0.018767 0
0.719979 -0.018972 0
0.711088 -0.019035 0
0.702113 -0.019008 0
0.693065 -0.018925 0
0.683956 -0.018811 0
0.674794 -0.018681 0
0.665587 -0.018548 0
0.656342 -0.018417 0
0.647064 -0.018292 0
0.637759 -0.018177 0
0.628431 -0.018072 0
0.619083 -0.017977 0
0.609719 -0.017893 0
0.600340 -0.017818 0
0.590950 -0.017752 0
0.581550 -0.017695 0
0.572141 -0.017644 0
0.562726 -0.017601 0
0.553305 -0.017563 0
0.543879 -0.017530 0
0.534449 -0.017502 0
0.525016 -0.017478 0
0.515581 -0.017457 0
0.506144 -0.017438 0
0.496705 -0.017423 0
0.487265 -0.017409 0
0.477824 -0.017398 0
0.468383 -0.017388 0
0.458941 -0.017379 0
0.449499 -0.017372 0
0.440058 -0.017366 0
0.430617 -0.017360 0
0.421176 -0.017355 0
0.411735 -0.017351 0
0.402295 -0.017347 0
0.392856 -0.017344 0
0.383417 -0.017341 0
0.373979 -0.017339 0
0.364542 -0.017337 0
0.355105 -0.017335 0
0.345670 -0.017333 0
0.336235 -0.017331 0
0.326801 -0.017330 0
0.317367 -0.017328 0
0.307935 -0.017327 0
0.298503 -0.017326 0
0.289072 -0.017325 0
0.279642 -0.017324 0
0.270213 -0.017323 0
0.260784 -0.017322 0
0.251356 -0.017321 0
0.241929 -0.017321 0
0.232502 -0.017320 0
0.223076 -0.017320 0
0.213651 -0.017319 0
0.204226 -0.017319 0
0.194802 -0.017319 0
0.185378 -0.017319 0
0.175955 -0.017319 0
0.166532 -0.017319 0
0.157110 -0.017319 0
0.147688 -0.017320 0
0.138267 -0.017321 0
0.128846 -0.017323 0
0.119425 -0.017325 0
0.110004 -0.017328 0
0.100583 -0.017332 0
0.091162 -0.017338 0
0.081739 -0.017344 0
0.072315 -0.017352 0
0.062887 -0.017361 0
0.053455 -0.017241 0
0.044035 -0.017727 0
1.000000 0.001031 0
0.967922 -0.039564 0
0.959156 -0.087738 0
0.951488 -0.128722 0
0.947945 -0.161047 0
0.954158 -0.196883 0
0.981845 -0.243621 0
1.054516 -0.301933 0
1.244972 -0.238018 0
1.308171 -0.048716 0
1.250655 0.102986 0
1.130247 0.181729 0
1.013418 0.196717 0
0.926282 0.174236 0
0.867629 0.136826 0
0.832001 0.097838 0
0.811864 0.064276 0
0.800250 0.038377 0
0.792608 0.019601 0
0.786446 0.006473 0
0.780540 -0.002498 0
0.774363 -0.008524 0
0.767732 -0.012505 0
0.760628 -0.015082 0
0.753095 -0.016702 0
0.745196 -0.017674 0
0.736998 -0.018211 0
0.728557 -0.018462 0
0.719922 -0.018525 0
0.711132 -0.018471 0
0.702218 -0.018347 0
0.693204 -0.018184 0
0.684110 -0.018003 0
0.674951 -0.017818 0
0.665740 -0.017639 0
0.656486 -0.017469 0
0.647198 -0.017312 0
0.637881 -0.017170 0
0.628540 -0.017042 0
0.619180 -0.016928 0
0.609805 -0.016827 0
0.600416 -0.016739 0
0.591016 -0.016661 0
0.581607 -0.016594 0
0.572191 -0.016535 0
0.562769 -0.016484 0
0.553342 -0.016441 0
0.543911 -0.016403 0
0.534477 -0.016370 0
0.525040 -0.016342 0
0.515601 -0.016317 0
0.506161 -0.016297 0
0.496720 -0.016279 0
0.487277 -0.016263 0
0.477835 -0.016250 0
0.468392 -0.016239 0
0.458949 -0.016229 0
0.449506 -0.016220 0
0.440064 -0.016213 0
0.430622 -0.016207 0
0.421180 -0.016201 0
0.411739 -0.016197 0
0.402298 -0.016193 0
0.392859 -0.016189 0
0.383420 -0.016186 0
0.373981 -0.016183 0
0.364544 -0.016181 0
0.355107 -0.016178 0
0.345671 -0.016176 0
0.336236 -0.016175 0
0.326802 -0.016173 0
0.317369 -0.016172 0
0.307936 -0.016171 0
0.298504 -0.016169 0
0.289073 -0.016168 0
0.279643 -0.016167 0
0.270213 -0.016166 0
0.260785 -0.016166 0
0.251357 -0.016165 0
0.241929 -0.016164 0
0.232502 -0.016164 0
0.223076 -0.016163 0
0.213651 -0.016163 0
0.204226 -0.016163 0
0.194802 -0.016163 0
0.185378 -0.016163 0
0.175954 -0.016163 0
0.166532 -0.016163 0
0.157109 -0.016164 0
0.147687 -0.016164 0
0.138265 -0.016166 0
0.128844 -0.016167 0
0.119422 -0.016169 0
0.110001 -0.016172 0
0.100579 -0.016176 0
0.091156 -0.016180 0
0.081733 -0.016185 0
0.072308 -0.016190 0
0.062880 -0.016196 0
0.053450 -0.016081 0
0.044033 -0.016534 0
1.000000 0.000915 0
0.966634 -0.037792 0
0.952453 -0.084465 0
0.935011 -0.126360 0
0.917067 -0.164270 0
0.902430 -0.215555 0
0.900817 -0.300665 0
0.942659 -0.470194 0
1.146341 -0.413480 0
1.238743 -0.069056 0
1.257681 0.203320 0
1.158302 0.319348 0
1.013231 0.307912 0
0.885801 0.245884 0
0.814195 0.176369 0
0.785874 0.114670 0
0.777740 0.067983 0
0.776599 0.036109 0
0.776719 0.015345 0
0.775956 0.002095 0
0.773699 -0.006262 0
0.769961 -0.011475 0
0.764953 -0.014671 0
0.758927 -0.016572 0
0.752106 -0.017639 0
0.744677 -0.018171 0
0.736784 -0.018363 0
0.728537 -0.018343 0
0.720022 -0.018197 0
0.711301 -0.017978 0
0.702423 -0.017725 0
0.693423 -0.017460 0
0.684329 -0.017199 0
0.675162 -0.016950 0
0.665937 -0.016719 0
0.656667 -0.016509 0
0.647361 -0.016318 0
0.638027 -0.016149 0
0.628670 -0.015998 0
0.619295 -0.015866 0
0.609905 -0.015750 0
0.600503 -0.015649 0
0.591092 -0.015561 0
0.581673 -0.015484 0
0.572248 -0.015418 0
0.562818 -0.015361 0
0.553384 -0.015312 0
0.543947 -0.015270 0
0.534508 -0.015233 0
0.525067 -0.015202 0
0.515624 -0.015175 0
0.506181 -0.015152 0
0.496736 -0.015132 0
0.487292 -0.015115 0
0.477847 -0.015100 0
0.468403 -0.015088 0
0.458958 -0.015077 0
0.449514 -0.015068 0
0.440070 -0.015060 0
0.430627 -0.015053 0
0.421185 -0.015047 0
0.411743 -0.015042 0
0.402302 -0.015037 0
0.392862 -0.015033 0
0.383422 -0.015030 0
0.373984 -0.015027 0
0.364546 -0.015024 0
0.355109 -0.015022 0
0.345673 -0.015020 0
0.336238 -0.015018 0
0.326803 -0.015017 0
0.317370 -0.015015 0
0.307937 -0.015014 0
0.298505 -0.015013 0
0.289074 -0.015012 0
0.279644 -0.015011 0
0.270214 -0.015010 0
0.260785 -0.015009 0
0.251357 -0.015008 0
0.241930 -0.015008 0
0.232503 -0.015007 0
0.223077 -0.015007 0
0.213651 -0.015007 0
0.204226 -0.015006 0
0.194802 -0.015006 0
0.185378 -0.015006 0
0.175954 -0.015007 0
0.166531 -0.015007 0
0.157108 -0.015008 0
0.147686 -0.015008 0
0.138264 -0.015010 0
0.128842 -0.015011 0
0.119420 -0.015013 0
0.109998 -0.015015 0
0.100575 -0.015018 0
0.091152 -0.015022 0
0.081728 -0.015025 0
0.072303 -0.015029 0
0.062876 -0.015032 0
0.053447 -0.014924 0
0.044034 -0.015344 0
1.000000 0.000647 0
0.965267 -0.032352 0
0.945509 -0.072805 0
0.917607 -0.110025 0
0.882549 -0.145154 0
0.837677 -0.197321 0
0.775305 -0.300537 0
0.680049 -0.564144 0
0.501318 -0.550786 0
-0.047067 -0.176737 0
0.608083 0.166747 0
0.770042 0.409500 0
0.760518 0.452540 0
0.719415 0.356595 0
0.707602 0.220077 0
0.719046 0.117618 0
0.736627 0.056879 0
0.751678 0.022727 0
0.761720 0.003575 0
0.766958 -0.007175 0
0.768342 -0.013170 0
0.766830 -0.016442 0
0.763195 -0.018133 0
0.758020 -0.018895 0
0.751728 -0.019110 0
0.744623 -0.019007 0
0.736924 -0.018726 0
0.728788 -0.018352 0
0.720329 -0.017939 0
0.711630 -0.017520 0
0.702751 -0.017114 0
0.693738 -0.016733 0
0.684624 -0.016383 0
0.675432 -0.016065 0
0.666181 -0.015780 0
0.656885 -0.015527 0
0.647555 -0.015304 0
0.638198 -0.015108 0
0.628819 -0.014937 0
0.619425 -0.014787 0
0.610018 -0.014658 0
0.600601 -0.014546 0
0.591177 -0.014448 0
0.581746 -0.014365 0
0.572311 -0.014293 0
0.562872 -0.014230 0
0.553431 -0.014177 0
0.543987 -0.014131 0
0.534542 -0.014092 0
0.525096 -0.014058 0
0.515649 -0.014029 0
0.506202 -0.014004 0
0.496755 -0.013983 0
0.487308 -0.013965 0
0.477861 -0.013949 0
0.468414 -0.013935 0
0.458968 -0.013924 0
0.449523 -0.013914 0
0.440078 -0.013905 0
0.430634 -0.013898 0
0.421190 -0.013892 0
0.411748 -0.013886 0
0.402306 -0.013881 0
0.392865 -0.013877 0
0.383425 -0.013874 0
0.373986 -0.013871 0
0.364548 -0.013868 0
0.355111 -0.013866 0
0.345675 -0.013863 0
0.336239 -0.013862 0
0.326805 -0.013860 0
0.317371 -0.013858 0
0.307938 -0.013857 0
0.298506 -0.013856 0
0.289075 -0.013855 0
0.279644 -0.013854 0
0.270215 -0.013853 0
0.260786 -0.013852 0
0.251358 -0.013852 0
0.241930 -0.013851 0
0.232503 -0.013851 0
0.223077 -0.013850 0
0.213651 -0.013850 0
0.204226 -0.013850 0
0.194802 -0.013850 0
0.185378 -0.013850 0
0.175954 -0.013850 0
0.166531 -0.013851 0
0.157108 -0.013851 0
0.147685 -0.013852 0
0.138263 -0.013853 0
0.128840 -0.013855 0
0.119418 -0.013856 0
0.109995 -0.013858 0
0.100573 -0.013860 0
0.091149 -0.013863 0
0.081725 -0.013866 0
0.072300 -0.013868 0
0.062874 -0.013870 0
0.053446 -0.013769 0
0.044035 -0.014156 0
1.000000 0.000257 0
0.964274 -0.023636 0
0.940469 -0.053495 0
0.904919 -0.080089 0
0.857341 -0.101027 0
0.790362 -0.124998 0
0.683666 -0.159724 0
0.487619 -0.212894 0
0.013214 -0.003508 0
-0.640143 0.147500 0
0.000000 -0.005903 0
0.185824 0.134339 0
0.359179 0.341861 0
0.465050 0.282124 0
0.566471 0.160062 0
0.644670 0.068971 0
0.698098 0.018679 0
0.731804 -0.005656 0
0.751521 -0.016604 0
0.761815 -0.021195 0
0.765884 -0.022800 0
0.765821 -0.022992 0
0.762977 -0.022524 0
0.758232 -0.021765 0
0.752164 -0.020900 0
0.745165 -0.020023 0
0.737502 -0.019182 0
0.729362 -0.018400 0
0.720876 -0.017688 0
0.712138 -0.017049 0
0.703215 -0.016479 0
0.694156 -0.015976 0
0.684996 -0.015534 0
0.675761 -0.015147 0
0.666471 -0.014809 0
0.657139 -0.014516 0
0.647776 -0.014262 0
0.638390 -0.014043 0
0.628986 -0.013853 0
0.619569 -0.013689 0
0.610143 -0.013548 0
0.600709 -0.013427 0
0.591269 -0.013323 0
0.581826 -0.013233 0
0.572379 -0.013157 0
0.562931 -0.013091 0