# vtk DataFile Version 2.0
generated by CFD-lab course output (written by Tobias Neckel) 
ASCII

DATASET STRUCTURED_GRID
DIMENSIONS  101 21 1 
POINTS 2121 float

0.000000 0.000000 0
0.100000 0.000000 0
0.200000 0.000000 0
0.300000 0.000000 0
0.400000 0.000000 0
0.500000 0.000000 0
0.600000 0.000000 0
0.700000 0.000000 0
0.800000 0.000000 0
0.900000 0.000000 0
1.000000 0.000000 0
1.100000 0.000000 0
1.200000 0.000000 0
1.300000 0.000000 0
1.400000 0.000000 0
1.500000 0.000000 0
1.600000 0.000000 0
1.700000 0.000000 0
1.800000 0.000000 0
1.900000 0.000000 0
2.000000 0.000000 0
2.100000 0.000000 0
2.200000 0.000000 0
2.300000 0.000000 0
2.400000 0.000000 0
2.500000 0.000000 0
2.600000 0.000000 0
2.700000 0.000000 0
2.800000 0.000000 0
2.900000 0.000000 0
3.000000 0.000000 0
3.100000 0.000000 0
3.200000 0.000000 0
3.300000 0.000000 0
3.400000 0.000000 0
3.500000 0.000000 0
3.600000 0.000000 0
3.700000 0.000000 0
3.800000 0.000000 0
3.900000 0.000000 0
4.000000 0.000000 0
4.100000 0.000000 0
4.200000 0.000000 0
4.300000 0.000000 0
4.400000 0.000000 0
4.500000 0.000000 0
4.600000 0.000000 0
4.700000 0.000000 0
4.800000 0.000000 0
4.900000 0.000000 0
5.000000 0.000000 0
5.100000 0.000000 0
5.200000 0.000000 0
5.300000 0.000000 0
5.400000 0.000000 0
5.500000 0.000000 0
5.600000 0.000000 0
5.700000 0.000000 0
5.800000 0.000000 0
5.900000 0.000000 0
6.000000 0.000000 0
6.100000 0.000000 0
6.200000 0.000000 0
6.300000 0.000000 0
6.400000 0.000000 0
6.500000 0.000000 0
6.600000 0.000000 0
6.700000 0.000000 0
6.800000 0.000000 0
6.900000 0.000000 0
7.000000 0.000000 0
7.100000 0.000000 0
7.200000 0.000000 0
7.300000 0.000000 0
7.400000 0.000000 0
7.500000 0.000000 0
7.600000 0.000000 0
7.700000 0.000000 0
7.800000 0.000000 0
7.900000 0.000000 0
8.000000 0.000000 0
8.100000 0.000000 0
8.200000 0.000000 0
8.300000 0.000000 0
8.400000 0.000000 0
8.500000 0.000000 0
8.600000 0.000000 0
8.700000 0.000000 0
8.800000 0.000000 0
8.900000 0.000000 0
9.000000 0.000000 0
9.100000 0.000000 0
9.200000 0.000000 0
9.300000 0.000000 0
9.400000 0.000000 0
9.500000 0.000000 0
9.600000 0.000000 0
9.700000 0.000000 0
9.800000 0.000000 0
9.900000 0.000000 0
10.000000 0.000000 0
0.000000 0.100000 0
0.100000 0.100000 0
0.200000 0.100000 0
0.300000 0.100000 0
0.400000 0.100000 0
0.500000 0.100000 0
0.600000 0.100000 0
0.700000 0.100000 0
0.800000 0.100000 0
0.900000 0.100000 0
1.000000 0.100000 0
1.100000 0.100000 0
1.200000 0.100000 0
1.300000 0.100000 0
1.400000 0.100000 0
1.500000 0.100000 0
1.600000 0.100000 0
1.700000 0.100000 0
1.800000 0.100000 0
1.900000 0.100000 0
2.000000 0.100000 0
2.100000 0.100000 0
2.200000 0.100000 0
2.300000 0.100000 0
2.400000 0.100000 0
2.500000 0.100000 0
2.600000 0.100000 0
2.700000 0.100000 0
2.800000 0.100000 0
2.900000 0.100000 0
3.000000 0.100000 0
3.100000 0.100000 0
3.200000 0.100000 0
3.300000 0.100000 0
3.400000 0.100000 0
3.500000 0.100000 0
3.600000 0.100000 0
3.700000 0.100000 0
3.800000 0.100000 0
3.900000 0.100000 0
4.000000 0.100000 0
4.100000 0.100000 0
4.200000 0.100000 0
4.300000 0.100000 0
4.400000 0.100000 0
4.500000 0.100000 0
4.600000 0.100000 0
4.700000 0.100000 0
4.800000 0.100000 0
4.900000 0.100000 0
5.000000 0.100000 0
5.100000 0.100000 0
5.200000 0.100000 0
5.300000 0.100000 0
5.400000 0.100000 0
5.500000 0.100000 0
5.600000 0.100000 0
5.700000 0.100000 0
5.800000 0.100000 0
5.900000 0.100000 0
6.000000 0.100000 0
6.100000 0.100000 0
6.200000 0.100000 0
6.300000 0.100000 0
6.400000 0.100000 0
6.500000 0.100000 0
6.600000 0.100000 0
6.700000 0.100000 0
6.800000 0.100000 0
6.900000 0.100000 0
7.000000 0.100000 0
7.100000 0.100000 0
7.200000 0.100000 0
7.300000 0.100000 0
7.400000 0.100000 0
7.500000 0.100000 0
7.600000 0.100000 0
7.700000 0.100000 0
7.800000 0.100000 0
7.900000 0.100000 0
8.000000 0.100000 0
8.100000 0.100000 0
8.200000 0.100000 0
8.300000 0.100000 0
8.400000 0.100000 0
8.500000 0.100000 0
8.600000 0.100000 0
8.700000 0.100000 0
8.800000 0.100000 0
8.900000 0.100000 0
9.000000 0.100000 0
9.100000 0.100000 0
9.200000 0.100000 0
9.300000 0.100000 0
9.400000 0.100000 0
9.500000 0.100000 0
9.600000 0.100000 0
9.700000 0.100000 0
9.800000 0.100000 0
9.900000 0.100000 0
10.000000 0.100000 0
0.000000 0.200000 0
0.100000 0.200000 0
0.200000 0.200000 0
0.300000 0.200000 0
0.400000 0.200000 0
0.500000 0.200000 0
0.600000 0.200000 0
0.700000 0.200000 0
0.800000 0.200000 0
0.900000 0.200000 0
1.000000 0.200000 0
1.100000 0.200000 0
1.200000 0.200000 0
1.300000 0.200000 0
1.400000 0.200000 0
1.500000 0.200000 0
1.600000 0.200000 0
1.700000 0.200000 0
1.800000 0.200000 0
1.900000 0.200000 0
2.000000 0.200000 0
2.100000 0.200000 0
2.200000 0.200000 0
2.300000 0.200000 0
2.400000 0.200000 0
2.500000 0.200000 0
2.600000 0.200000 0
2.700000 0.200000 0
2.800000 0.200000 0
2.900000 0.200000 0
3.000000 0.200000 0
3.100000 0.200000 0
3.200000 0.200000 0
3.300000 0.200000 0
3.400000 0.200000 0
3.500000 0.200000 0
3.600000 0.200000 0
3.700000 0.200000 0
3.800000 0.200000 0
3.900000 0.200000 0
4.000000 0.200000 0
4.100000 0.200000 0
4.200000 0.200000 0
4.300000 0.200000 0
4.400000 0.200000 0
4.500000 0.200000 0
4.600000 0.200000 0
4.700000 0.200000 0
4.800000 0.200000 0
4.900000 0.200000 0
5.000000 0.200000 0
5.100000 0.200000 0
5.200000 0.200000 0
5.300000 0.200000 0
5.400000 0.200000 0
5.500000 0.200000 0
5.600000 0.200000 0
5.700000 0.200000 0
5.800000 0.200000 0
5.900000 0.200000 0
6.000000 0.200000 0
6.100000 0.200000 0
6.200000 0.200000 0
6.300000 0.200000 0
6.400000 0.200000 0
6.500000 0.200000 0
6.600000 0.200000 0
6.700000 0.200000 0
6.800000 0.200000 0
6.900000 0.200000 0
7.000000 0.200000 0
7.100000 0.200000 0
7.200000 0.200000 0
7.300000 0.200000 0
7.400000 0.200000 0
7.500000 0.200000 0
7.600000 0.200000 0
7.700000 0.200000 0
7.800000 0.200000 0
7.900000 0.200000 0
8.000000 0.200000 0
8.100000 0.200000 0
8.200000 0.200000 0
8.300000 0.200000 0
8.400000 0.200000 0
8.500000 0.200000 0
8.600000 0.200000 0
8.700000 0.200000 0
8.800000 0.200000 0
8.900000 0.200000 0
9.000000 0.200000 0
9.100000 0.200000 0
9.200000 0.200000 0
9.300000 0.200000 0
9.400000 0.200000 0
9.500000 0.200000 0
9.600000 0.200000 0
9.700000 0.200000 0
9.800000 0.200000 0
9.900000 0.200000 0
10.000000 0.200000 0
0.000000 0.300000 0
0.100000 0.300000 0
0.200000 0.300000 0
0.300000 0.300000 0
0.400000 0.300000 0
0.500000 0.300000 0
0.600000 0.300000 0
0.700000 0.300000 0
0.800000 0.300000 0
0.900000 0.300000 0
1.000000 0.300000 0
1.100000 0.300000 0
1.200000 0.300000 0
1.300000 0.300000 0
1.400000 0.300000 0
1.500000 0.300000 0
1.600000 0.300000 0
1.700000 0.300000 0
1.800000 0.300000 0
1.900000 0.300000 0
2.000000 0.300000 0
2.100000 0.300000 0
2.200000 0.300000 0
2.300000 0.300000 0
2.400000 0.300000 0
2.500000 0.300000 0
2.600000 0.300000 0
2.700000 0.300000 0
2.800000 0.300000 0
2.900000 0.300000 0
3.000000 0.300000 0
3.100000 0.300000 0
3.200000 0.300000 0
3.300000 0.300000 0
3.400000 0.300000 0
3.500000 0.300000 0
3.600000 0.300000 0
3.700000 0.300000 0
3.800000 0.300000 0
3.900000 0.300000 0
4.000000 0.300000 0
4.100000 0.300000 0
4.200000 0.300000 0
4.300000 0.300000 0
4.400000 0.300000 0
4.500000 0.300000 0
4.600000 0.300000 0
4.700000 0.300000 0
4.800000 0.300000 0
4.900000 0.300000 0
5.000000 0.300000 0
5.100000 0.300000 0
5.200000 0.300000 0
5.300000 0.300000 0
5.400000 0.300000 0
5.500000 0.300000 0
5.600000 0.300000 0
5.700000 0.300000 0
5.800000 0.300000 0
5.900000 0.300000 0
6.000000 0.300000 0
6.100000 0.300000 0
6.200000 0.300000 0
6.300000 0.300000 0
6.400000 0.300000 0
6.500000 0.300000 0
6.600000 0.300000 0
6.700000 0.300000 0
6.800000 0.300000 0
6.900000 0.300000 0
7.000000 0.300000 0
7.100000 0.300000 0
7.200000 0.300000 0
7.300000 0.300000 0
7.400000 0.300000 0
7.500000 0.300000 0
7.600000 0.300000 0
7.700000 0.300000 0
7.800000 0.300000 0
7.900000 0.300000 0
8.000000 0.300000 0
8.100000 0.300000 0
8.200000 0.300000 0
8.300000 0.300000 0
8.400000 0.300000 0
8.500000 0.300000 0
8.600000 0.300000 0
8.700000 0.300000 0
8.800000 0.300000 0
8.900000 0.300000 0
9.000000 0.300000 0
9.100000 0.300000 0
9.200000 0.300000 0
9.300000 0.300000 0
9.400000 0.300000 0
9.500000 0.300000 0
9.600000 0.300000 0
9.700000 0.300000 0
9.800000 0.300000 0
9.900000 0.300000 0
10.000000 0.300000 0
0.000000 0.400000 0
0.100000 0.400000 0
0.200000 0.400000 0
0.300000 0.400000 0
0.400000 0.400000 0
0.500000 0.400000 0
0.600000 0.400000 0
0.700000 0.400000 0
0.800000 0.400000 0
0.900000 0.400000 0
1.000000 0.400000 0
1.100000 0.400000 0
1.200000 0.400000 0
1.300000 0.400000 0
1.400000 0.400000 0
1.500000 0.400000 0
1.600000 0.400000 0
1.700000 0.400000 0
1.800000 0.400000 0
1.900000 0.400000 0
2.000000 0.400000 0
2.100000 0.400000 0
2.200000 0.400000 0
2.300000 0.400000 0
2.400000 0.400000 0
2.500000 0.400000 0
2.600000 0.400000 0
2.700000 0.400000 0
2.800000 0.400000 0
2.900000 0.400000 0
3.000000 0.400000 0
3.100000 0.400000 0
3.200000 0.400000 0
3.300000 0.400000 0
3.400000 0.400000 0
3.500000 0.400000 0
3.600000 0.400000 0
3.700000 0.400000 0
3.800000 0.400000 0
3.900000 0.400000 0
4.000000 0.400000 0
4.100000 0.400000 0
4.200000 0.400000 0
4.300000 0.400000 0
4.400000 0.400000 0
4.500000 0.400000 0
4.600000 0.400000 0
4.700000 0.400000 0
4.800000 0.400000 0
4.900000 0.400000 0
5.000000 0.400000 0
5.100000 0.400000 0
5.200000 0.400000 0
5.300000 0.400000 0
5.400000 0.400000 0
5.500000 0.400000 0
5.600000 0.400000 0
5.700000 0.400000 0
5.800000 0.400000 0
5.900000 0.400000 0
6.000000 0.400000 0
6.100000 0.400000 0
6.200000 0.400000 0
6.300000 0.400000 0
6.400000 0.400000 0
6.500000 0.400000 0
6.600000 0.400000 0
6.700000 0.400000 0
6.800000 0.400000 0
6.900000 0.400000 0
7.000000 0.400000 0
7.100000 0.400000 0
7.200000 0.400000 0
7.300000 0.400000 0
7.400000 0.400000 0
7.500000 0.400000 0
7.600000 0.400000 0
7.700000 0.400000 0
7.800000 0.400000 0
7.900000 0.400000 0
8.000000 0.400000 0
8.100000 0.400000 0
8.200000 0.400000 0
8.300000 0.400000 0
8.400000 0.400000 0
8.500000 0.400000 0
8.600000 0.400000 0
[...]
POINT_DATA 2121 

VECTORS velocity float
0.500000 0.000000 0
0.004226 0.000000 0
0.012219 0.000000 0
0.018531 0.000000 0
0.024342 0.000000 0
0.030060 0.000000 0
0.035752 0.000000 0
0.041275 0.000000 0
0.046348 0.000000 0
0.050662 0.000000 0
0.054010 0.000000 0
0.056312 0.000000 0
0.057647 0.000000 0
0.058233 0.000000 0
0.058349 0.000000 0
0.058251 0.000000 0
0.058134 0.000000 0
0.058114 0.000000 0
0.058247 0.000000 0
0.058544 0.000000 0
0.058992 0.000000 0
0.059564 0.000000 0
0.060229 0.000000 0
0.060959 0.000000 0
0.061727 0.000000 0
0.062512 0.000000 0
0.063297 0.000000 0
0.064068 0.000000 0
0.064816 0.000000 0
0.065532 0.000000 0
0.066210 0.000000 0
0.066845 0.000000 0
0.067435 0.000000 0
0.067977 0.000000 0
0.068469 0.000000 0
0.068909 0.000000 0
0.069296 0.000000 0
0.069631 0.000000 0
0.069911 0.000000 0
0.070138 0.000000 0
0.070310 0.000000 0
0.070427 0.000000 0
0.070490 0.000000 0
0.070499 0.000000 0
0.070453 0.000000 0
0.070353 0.000000 0
0.070199 0.000000 0
0.069992 0.000000 0
0.069731 0.000000 0
0.069416 0.000000 0
0.069050 0.000000 0
0.068631 0.000000 0
0.068160 0.000000 0
0.067639 0.000000 0
0.067066 0.000000 0
0.066444 0.000000 0
0.065773 0.000000 0
0.065052 0.000000 0
0.064284 0.000000 0
0.063469 0.000000 0
0.062607 0.000000 0
0.061700 0.000000 0
0.060748 0.000000 0
0.059753 0.000000 0
0.058714 0.000000 0
0.057633 0.000000 0
0.056512 0.000000 0
0.055350 0.000000 0
0.054150 0.000000 0
0.052911 0.000000 0
0.051636 0.000000 0
0.050325 0.000000 0
0.048979 0.000000 0
0.047600 0.000000 0
0.046189 0.000000 0
0.044746 0.000000 0
0.043274 0.000000 0
0.041772 0.000000 0
0.040243 0.000000 0
0.038688 0.000000 0
0.037108 0.000000 0
0.035505 0.000000 0
0.033878 0.000000 0
0.032231 0.000000 0
0.030564 0.000000 0
0.028878 0.000000 0
0.027176 0.000000 0
0.025457 0.000000 0
0.023724 0.000000 0
0.021978 0.000000 0
0.020219 0.000000 0
0.018451 0.000000 0
0.016673 0.000000 0
0.014888 0.000000 0
0.013096 0.000000 0
0.011299 0.000000 0
0.009498 0.000000 0
0.007695 0.000000 0
0.005890 0.000000 0
0.004086 0.000000 0
0.002276 0.000000 0
1.000000 0.006629 0
0.961120 -0.040387 0
0.966057 -0.047317 0
0.970418 -0.045369 0
0.974920 -0.044837 0
0.979696 -0.044334 0
0.984175 -0.042994 0
0.987015 -0.040209 0
0.986264 -0.035806 0
0.980003 -0.030271 0
0.967362 -0.024636 0
0.948972 -0.019983 0
0.926575 -0.016977 0
0.902276 -0.015724 0
0.877891 -0.015904 0
0.854647 -0.017020 0
0.833174 -0.018596 0
0.813652 -0.020272 0
0.795979 -0.021825 0
0.779910 -0.023145 0
0.765158 -0.024198 0
0.751443 -0.024995 0
0.738521 -0.025569 0
0.726195 -0.025959 0
0.714307 -0.026206 0
0.702740 -0.026342 0
0.691406 -0.026397 0
0.680242 -0.026390 0
0.669202 -0.026340 0
0.658257 -0.026260 0
0.647385 -0.026157 0
0.636572 -0.026040 0
0.625810 -0.025912 0
0.615094 -0.025778 0
0.604422 -0.025639 0
0.593792 -0.025498 0
0.583206 -0.025355 0
0.572663 -0.025211 0
0.562166 -0.025066 0
0.551716 -0.024922 0
0.541315 -0.024778 0
0.530963 -0.024634 0
0.520663 -0.024490 0
0.510415 -0.024347 0
0.500221 -0.024205 0
0.490082 -0.024063 0
0.479999 -0.023921 0
0.469971 -0.023780 0
0.460001 -0.023640 0
0.450088 -0.023500 0
0.440232 -0.023361 0
0.430434 -0.023223 0
0.420693 -0.023085 0
0.411011 -0.022949 0
0.401385 -0.022813 0
0.391817 -0.022679 0
0.382305 -0.022545 0
0.372850 -0.022413 0
0.363450 -0.022283 0
0.354106 -0.022153 0
0.344816 -0.022026 0
0.335580 -0.021900 0
0.326397 -0.021775 0
0.317267 -0.021653 0
0.308187 -0.021532 0
0.299158 -0.021414 0
0.290179 -0.021297 0
0.281247 -0.021183 0
0.272363 -0.021071 0
0.263525 -0.020962 0
0.254732 -0.020855 0
0.245982 -0.020751 0
0.237275 -0.020649 0
0.228609 -0.020550 0
0.219982 -0.020454 0
0.211394 -0.020361 0
0.202842 -0.020271 0
0.194326 -0.020184 0
0.185845 -0.020101 0
0.177395 -0.020020 0
0.168977 -0.019943 0
0.160588 -0.019869 0
0.152226 -0.019799 0
0.143892 -0.019732 0
0.135581 -0.019669 0
0.127294 -0.019609 0
0.119028 -0.019553 0
0.110781 -0.019500 0
0.102553 -0.019451 0
0.094341 -0.019406 0
0.086143 -0.019365 0
0.077958 -0.019328 0
0.069784 -0.019294 0
0.061619 -0.019264 0
0.053462 -0.019238 0
0.045310 -0.019216 0
0.037161 -0.019197 0
0.029015 -0.019182 0
0.020868 -0.019171 0
0.012719 -0.019157 0
0.004557 -0.014945 0
1.000000 0.009117 0
0.962080 -0.046773 0
0.962516 -0.060114 0
0.965065 -0.059624 0
0.969231 -0.059977 0
0.974872 -0.059882 0
0.981366 -0.057864 0
0.987070 -0.052544 0
0.989114 -0.043346 0
0.984192 -0.031350 0
0.970814 -0.019108 0
0.950116 -0.009233 0
0.924873 -0.003200 0
0.898103 -0.001081 0
0.872066 -0.001999 0
0.848018 -0.004768 0
0.826397 -0.008342 0
0.807143 -0.011986 0
0.789948 -0.015279 0
0.774428 -0.018033 0
0.760210 -0.020214 0
0.746976 -0.021867 0
0.734467 -0.023072 0
0.722487 -0.023916 0
0.710887 -0.024482 0
0.699559 -0.024836 0
0.688425 -0.025035 0
0.677431 -0.025122 0
0.666539 -0.025128 0
0.655724 -0.025079 0
0.644969 -0.024991 0
0.634264 -0.024877 0
0.623602 -0.024746 0
0.612980 -0.024605 0
0.602397 -0.024457 0
0.591854 -0.024307 0
0.581350 -0.024155 0
0.570888 -0.024003 0
0.560468 -0.023852 0
0.550093 -0.023702 0
0.539765 -0.023554 0
0.529484 -0.023407 0
0.519252 -0.023262 0
0.509071 -0.023118 0
0.498942 -0.022976 0
0.488866 -0.022835 0
0.478843 -0.022695 0
0.468875 -0.022557 0
0.458961 -0.022420 0
0.449103 -0.022284 0
0.439300 -0.022150 0
0.429552 -0.022016 0
0.419861 -0.021884 0
0.410225 -0.021753 0
0.400644 -0.021623 0
0.391119 -0.021494 0
0.381649 -0.021367 0
0.372233 -0.021241 0
0.362871 -0.021117 0
0.353563 -0.020994 0
0.344308 -0.020872 0
0.335105 -0.020752 0
0.325953 -0.020634 0
0.316852 -0.020518 0
0.307801 -0.020404 0
0.298798 -0.020291 0
0.289844 -0.020181 0
0.280936 -0.020073 0
0.272075 -0.019967 0
0.263258 -0.019863 0
0.254485 -0.019762 0
0.245754 -0.019663 0
0.237064 -0.019567 0
0.228414 -0.019474 0
0.219803 -0.019383 0
0.211230 -0.019295 0
0.202692 -0.019210 0
0.194189 -0.019127 0
0.185719 -0.019048 0
0.177280 -0.018972 0
0.168872 -0.018899 0
0.160493 -0.018829 0
0.152140 -0.018762 0
0.143814 -0.018699 0
0.135511 -0.018639 0
0.127231 -0.018582 0
0.118971 -0.018529 0
0.110731 -0.018479 0
0.102508 -0.018433 0
0.094301 -0.018390 0
0.086108 -0.018351 0
0.077928 -0.018315 0
0.069758 -0.018283 0
0.061597 -0.018254 0
0.053443 -0.018229 0
0.045295 -0.018207 0
0.037150 -0.018189 0
0.029007 -0.018174 0
0.020864 -0.018161 0
0.012718 -0.018144 0
0.004567 -0.014165 0
1.000000 0.009906 0
0.963746 -0.053752 0
0.962564 -0.071281 0
0.963747 -0.073035 0
0.967664 -0.075562 0
0.974738 -0.077352 0
0.984831 -0.076034 0
0.996197 -0.068756 0
1.004255 -0.053680 0
1.002047 -0.032673 0
0.986655 -0.011210 0
0.960714 0.005362 0
0.929436 0.014496 0
0.897759 0.016601 0
0.868648 0.013760 0
0.843192 0.008290 0
0.821337 0.001985 0
0.802519 -0.004050 0
0.786058 -0.009267 0
0.771334 -0.013492 0
0.757854 -0.016756 0
0.745245 -0.019185 0
0.733239 -0.020933 0
0.721648 -0.022151 0
0.710341 -0.022966 0
0.699229 -0.023484 0
0.688251 -0.023785 0
0.677368 -0.023932 0
0.666554 -0.023971 0
0.655792 -0.023935 0
0.645072 -0.023848 0
0.634390 -0.023729 0
0.623743 -0.023589 0
0.613129 -0.023437 0
0.602551 -0.023278 0
0.592009 -0.023116 0
0.581505 -0.022955 0
0.571042 -0.022794 0
0.560620 -0.022636 0
0.550244 -0.022480 0
0.539913 -0.022327 0
0.529630 -0.022178 0
0.519396 -0.022031 0
0.509213 -0.021887 0
0.499082 -0.021745 0
0.489004 -0.021605 0
0.478980 -0.021468 0
0.469010 -0.021333 0
0.459095 -0.021199 0
0.449235 -0.021068 0
0.439430 -0.020938 0
0.429682 -0.020809 0
0.419989 -0.020682 0
0.410352 -0.020556 0
0.400770 -0.020432 0
0.391243 -0.020309 0
0.381772 -0.020188 0
0.372355 -0.020068 0
0.362991 -0.019950 0
0.353682 -0.019833 0
0.344425 -0.019718 0
0.335220 -0.019605 0
0.326067 -0.019493 0
0.316964 -0.019383 0
0.307911 -0.019275 0
0.298906 -0.019168 0
0.289950 -0.019064 0
0.281040 -0.018962 0
0.272176 -0.018862 0
0.263357 -0.018764 0
0.254582 -0.018668 0
0.245848 -0.018575 0
0.237156 -0.018484 0
0.228504 -0.018396 0
0.219890 -0.018310 0
0.211314 -0.018227 0
0.202773 -0.018147 0
0.194267 -0.018069 0
0.185794 -0.017995 0
0.177353 -0.017923 0
0.168942 -0.017854 0
0.160559 -0.017788 0
0.152204 -0.017725 0
0.143874 -0.017665 0
0.135568 -0.017609 0
0.127284 -0.017555 0
0.119021 -0.017505 0
0.110778 -0.017458 0
0.102551 -0.017414 0
0.094341 -0.017373 0
0.086145 -0.017336 0
0.077961 -0.017302 0
0.069788 -0.017271 0
0.061623 -0.017244 0
0.053466 -0.017220 0
0.045315 -0.017198 0
0.037167 -0.017180 0
0.029021 -0.017165 0
0.020875 -0.017152 0
0.012728 -0.017134 0
0.004577 -0.013386 0
1.000000 0.010179 0
0.963302 -0.060173 0
0.960260 -0.081091 0
0.959711 -0.085672 0
0.962959 -0.091883 0
0.971604 -0.097928 0
0.987043 -0.100164 0
1.008658 -0.092764 0
1.029687 -0.069942 0
1.033095 -0.034446 0
1.013073 0.001583 0
0.976676 0.027399 0
0.934424 0.039223 0
0.894879 0.039232 0
0.861603 0.032152 0
0.834799 0.022189 0
0.813274 0.012041 0
0.795574 0.003071 0
0.780465 -0.004246 0
0.767035 -0.009909 0
0.754665 -0.014130 0
0.742951 -0.017181 0
0.731637 -0.019324 0
0.720567 -0.020786 0
0.709643 -0.021747 0
0.698807 -0.022346 0
0.688026 -0.022687 0
0.677281 -0.022849 0
0.666561 -0.022886 0
0.655863 -0.022840 0
0.645185 -0.022738 0
0.634529 -0.022601 0
0.623897 -0.022444 0
0.613293 -0.022275 0
0.602718 -0.022101 0
0.592176 -0.021926 0
0.581671 -0.021752 0
0.571204 -0.021582 0
0.560780 -0.021416 0
0.550399 -0.021255 0
0.540064 -0.021098 0
0.529778 -0.020945 0
0.519541 -0.020797 0
0.509355 -0.020653 0
0.499221 -0.020512 0
0.489140 -0.020374 0
0.479114 -0.020239 0
0.469141 -0.020107 0
0.459224 -0.019977 0
0.449363 -0.019850 0
0.439557 -0.019724 0
0.429806 -0.019601 0
0.420112 -0.019479 0
0.410473 -0.019359 0
0.400890 -0.019241 0
0.391362 -0.019124 0
0.381889 -0.019009 0
0.372470 -0.018895 0
0.363105 -0.018783 0
0.353794 -0.018672 0
0.344536 -0.018564 0
0.335329 -0.018456 0
0.326174 -0.018351 0
0.317069 -0.018247 0
0.308015 -0.018145 0
0.299008 -0.018045 0
0.290050 -0.017947 0
0.281138 -0.017850 0
0.272272 -0.017756 0
0.263451 -0.017664 0
0.254673 -0.017574 0
0.245937 -0.017486 0
0.237243 -0.017401 0
0.228588 -0.017318 0
0.219972 -0.017238 0
0.211393 -0.017159 0
0.202850 -0.017084 0
0.194341 -0.017011 0
0.185865 -0.016941 0
0.177421 -0.016873 0
0.169007 -0.016808 0
0.160622 -0.016746 0
0.152263 -0.016687 0
0.143930 -0.016631 0
0.135621 -0.016577 0
0.127334 -0.016527 0
0.119069 -0.016480 0
0.110822 -0.016435 0
0.102592 -0.016394 0
0.094379 -0.016356 0
0.086179 -0.016320 0
0.077992 -0.016288 0
0.069816 -0.016259 0
0.061649 -0.016233 0
0.053489 -0.016209 0
0.045334 -0.016189 0
0.037184 -0.016171 0
0.029035 -0.016156 0
0.020887 -0.016143 0
0.012738 -0.016125 0
0.004586 -0.012606 0
1.000000 0.010417 0
0.961552 -0.064838 0
0.955477 -0.088662 0
0.951892 -0.096679 0
0.952875 -0.108369 0
0.961695 -0.122315 0
0.983102 -0.133927 0
1.021729 -0.132193 0
1.072767 -0.098860 0
1.087351 -0.036747 0
1.055892 0.024576 0
0.998522 0.063432 0
0.936734 0.075770 0
0.885759 0.068955 0
0.848113 0.053431 0
0.821161 0.036271 0
0.801418 0.020925 0
0.786074 0.008542 0
0.773228 -0.000876 0
0.761713 -0.007768 0
0.750858 -0.012673 0
0.740294 -0.016082 0
0.729832 -0.018396 0
0.719380 -0.019921 0
0.708898 -0.020888 0
0.698374 -0.021464 0
0.687810 -0.021769 0
0.677213 -0.021888 0
0.666593 -0.021884 0
0.655960 -0.021798 0
0.645323 -0.021661 0
0.634692 -0.021494 0
0.624074 -0.021309 0
0.613475 -0.021117 0
0.602900 -0.020923 0
0.592357 -0.020732 0
0.581847 -0.020546 0
0.571376 -0.020365 0
0.560945 -0.020191 0
0.550559 -0.020024 0
0.540219 -0.019863 0
0.529928 -0.019708 0
0.519686 -0.019559 0
0.509496 -0.019415 0
0.499359 -0.019275 0
0.489274 -0.019139 0
0.479244 -0.019008 0
0.469269 -0.018879 0
0.459350 -0.018753 0
0.449486 -0.018630 0
0.439678 -0.018510 0
0.429926 -0.018391 0
0.420229 -0.018275 0
0.410589 -0.018161 0
0.401004 -0.018048 0
0.391474 -0.017938 0
0.382000 -0.017828 0
0.372579 -0.017721 0
0.363213 -0.017615 0
0.353900 -0.017511 0
0.344640 -0.017408 0
0.335432 -0.017308 0
0.326275 -0.017208 0
0.317169 -0.017111 0
0.308112 -0.017015 0
0.299104 -0.016921 0
0.290144 -0.016829 0
0.281230 -0.016738 0
0.272362 -0.016650 0
0.263539 -0.016564 0
0.254759 -0.016479 0
0.246021 -0.016397 0
0.237324 -0.016317 0
0.228667 -0.016239 0
0.220049 -0.016164 0
0.211467 -0.016091 0
0.202922 -0.016020 0
0.194410 -0.015952 0
0.185932 -0.015886 0
0.177485 -0.015823 0
0.169068 -0.015762 0
0.160680 -0.015704 0
0.152319 -0.015648 0
0.143983 -0.015596 0
0.135671 -0.015546 0
0.127382 -0.015498 0
0.119113 -0.015454 0
0.110863 -0.015412 0
0.102631 -0.015373 0
0.094414 -0.015337 0
0.086212 -0.015304 0
0.078022 -0.015274 0
0.069843 -0.015246 0
0.061673 -0.015221 0
0.053510 -0.015199 0
0.045353 -0.015179 0
0.037200 -0.015162 0
0.029049 -0.015147 0
0.020899 -0.015135 0
0.012748 -0.015118 0
0.004595 -0.011826 0
1.000000 0.010852 0
0.958802 -0.066468 0
0.948218 -0.092403 0
0.939520 -0.104014 0
0.934969 -0.122600 0
0.939219 -0.149035 0
0.961964 -0.181037 0
1.022415 -0.203221 0
1.152328 -0.156304 0
1.185331 -0.038251 0
1.124646 0.069791 0
1.024811 0.125989 0
0.928260 0.131472 0
0.863337 0.107392 0
0.823963 0.076346 0
0.800344 0.048541 0
0.785197 0.026849 0
0.774109 0.011048 0
0.764695 -0.000029 0
0.755768 -0.007612 0
0.746796 -0.012710 0
0.737576 -0.016077 0
0.728058 -0.018253 0
0.718264 -0.019613 0
0.708237 -0.020420 0
0.698024 -0.020852 0
0.687670 -0.021034 0
0.677212 -0.021051 0
0.666683 -0.020962 0
0.656107 -0.020808 0
0.645504 -0.020615 0
0.634890 -0.020402 0
0.624279 -0.020180 0
0.613680 -0.019959 0
0.603102 -0.019742 0
0.592552 -0.019533 0
0.582035 -0.019333 0
0.571556 -0.019142 0
0.561118 -0.018960 0
0.550724 -0.018787 0
0.540377 -0.018623 0
0.530079 -0.018466 0
0.519832 -0.018316 0
0.509636 -0.018172 0
0.499494 -0.018034 0
0.489406 -0.017901 0
0.479372 -0.017773 0
0.469394 -0.017648 0
0.459471 -0.017527 0
0.449604 -0.017408 0
0.439794 -0.017293 0
0.430039 -0.017180 0
0.420341 -0.017070 0
0.410699 -0.016961 0
0.401112 -0.016855 0
0.391581 -0.016750 0
0.382104 -0.016647 0
0.372682 -0.016546 0
0.363314 -0.016447 0
0.354000 -0.016349 0
0.344738 -0.016253 0
0.335529 -0.016158 0
0.326370 -0.016065 0
0.317262 -0.015974 0
0.308204 -0.015884 0
0.299194 -0.015796 0
0.290232 -0.015710 0
0.281316 -0.015626 0
0.272447 -0.015543 0
0.263621 -0.015463 0
0.254839 -0.015384 0
0.246099 -0.015307 0
0.237400 -0.015233 0
0.228741 -0.015160 0
0.220120 -0.015090 0
0.211537 -0.015022 0
0.202989 -0.014956 0
0.194475 -0.014892 0
0.185994 -0.014830 0
0.177545 -0.014771 0
0.169126 -0.014715 0
0.160735 -0.014661 0
0.152371 -0.014609 0
0.144033 -0.014560 0
0.135718 -0.014513 0
0.127426 -0.014469 0
0.119155 -0.014427 0
0.110902 -0.014388 0
0.102667 -0.014352 0
0.094448 -0.014318 0
0.086243 -0.014287 0
0.078050 -0.014259 0
0.069869 -0.014233 0
0.061696 -0.014209 0
0.053531 -0.014188 0
0.045371 -0.014169 0
0.037216 -0.014153 0
0.029063 -0.014139 0
0.020910 -0.014127 0
0.012757 -0.014110 0
0.004603 -0.011045 0
1.000000 0.011573 0
0.955427 -0.063866 0
0.939087 -0.090351 0
0.923015 -0.104374 0
0.908279 -0.128982 0
0.898265 -0.170191 0
0.903142 -0.237967 0
0.953668 -0.343355 0
1.216887 -0.282515 0
1.383105 -0.029732 0
1.305065 0.164494 0
1.047838 0.239266 0
0.888182 0.216739 0
0.815393 0.152798 0
0.784087 0.096024 0
0.771086 0.054697 0
0.764946 0.026883 0
0.760506 0.008834 0
0.755709 -0.002676 0
0.749905 -0.009939 0
0.743022 -0.014476 0
0.735192 -0.017263 0
0.726601 -0.018924 0
0.717423 -0.019859 0
0.707803 -0.020324 0
0.697858 -0.020488 0
0.687677 -0.020462 0
0.677329 -0.020318 0
0.666865 -0.020105 0
0.656326 -0.019854 0
0.645741 -0.019587 0
0.635133 -0.019317 0
0.624519 -0.019051 0
0.613913 -0.018796 0
0.603326 -0.018554 0
0.592765 -0.018325 0
0.582236 -0.018110 0
0.571746 -0.017908 0
0.561297 -0.017719 0
0.550894 -0.017541 0
0.540538 -0.017374 0
0.530232 -0.017216 0
0.519977 -0.017066 0
0.509775 -0.016924 0
0.499627 -0.016789 0
0.489534 -0.016659 0
0.479496 -0.016534 0
0.469514 -0.016414 0
0.459587 -0.016297 0
0.449718 -0.016184 0
0.439904 -0.016074 0
0.430147 -0.015967 0
0.420447 -0.015862 0
0.410802 -0.015760 0
0.401214 -0.015660 0
0.391681 -0.015562 0
0.382202 -0.015465 0
0.372779 -0.015370 0
0.363409 -0.015277 0
0.354093 -0.015186 0
0.344830 -0.015096 0
0.335619 -0.015008 0
0.326459 -0.014921 0
0.317349 -0.014836 0
0.308289 -0.014753 0
0.299278 -0.014671 0
0.290314 -0.014591 0
0.281397 -0.014513 0
0.272525 -0.014436 0
0.263698 -0.014361 0
0.254914 -0.014288 0
0.246172 -0.014217 0
0.237471 -0.014148 0
0.228810 -0.014081 0
0.220187 -0.014015 0
0.211601 -0.013952 0
0.203051 -0.013891 0
0.194535 -0.013831 0
0.186052 -0.013774 0
0.177601 -0.013720 0
0.169179 -0.013667 0
0.160786 -0.013617 0
0.152420 -0.013569 0
0.144079 -0.013523 0
0.135762 -0.013480 0
0.127467 -0.013439 0
0.119193 -0.013400 0
0.110938 -0.013364 0
0.102701 -0.013330 0
0.094479 -0.013299 0
0.086272 -0.013270 0
0.078077 -0.013243 0
0.069892 -0.013219 0
0.061717 -0.013197 0
0.053550 -0.013177 0
0.045388 -0.013159 0
0.037230 -0.013144 0
0.029075 -0.013130 0
0.020921 -0.013119 0
0.012767 -0.013103 0
0.004611 -0.010263 0
1.000000 0.012534 0
0.952080 -0.056357 0
0.929698 -0.080960 0
0.905189 -0.094150 0
0.876880 -0.118767 0
0.842438 -0.164785 0
0.798692 -0.257292 0
0.742449 -0.537777 0
0.672589 -0.606494 0
-0.010327 -0.147074 0
0.721583 0.384496 0
0.842832 0.522338 0
0.761262 0.343420 0
0.725994 0.191038 0
0.725935 0.100258 0
0.735005 0.047345 0
0.743028 0.017155 0
0.747292 0.000076 0
0.747767 -0.009568 0
0.745159 -0.014992 0
0.740230 -0.017990 0
0.733610 -0.019573 0
0.725772 -0.020321 0
0.717064 -0.020572 0
0.707737 -0.020528 0
0.697971 -0.020314 0
0.687895 -0.020007 0
0.677605 -0.019653 0
0.667169 -0.019284 0
0.656638 -0.018916 0
0.646049 -0.018562 0
0.635429 -0.018226 0
0.624800 -0.017912 0
0.614177 -0.017620 0
0.603572 -0.017350 0
0.592994 -0.017102 0
0.582449 -0.016873 0
0.571944 -0.016661 0
0.561482 -0.016466 0
0.551066 -0.016284 0
0.540700 -0.016115 0
0.530384 -0.015957 0
0.520121 -0.015809 0
0.509912 -0.015669 0
0.499757 -0.015537 0
0.489658 -0.015411 0
0.479615 -0.015291 0
0.469629 -0.015175 0
0.459699 -0.015064 0
0.449826 -0.014957 0
0.440009 -0.014853 0
0.430250 -0.014752 0
0.420547 -0.014653 0
0.410900 -0.014557 0
0.401309 -0.014464 0
0.391774 -0.014372 0
0.382294 -0.014282 0
0.372869 -0.014194 0
0.363498 -0.014107 0
0.354180 -0.014022 0
0.344916 -0.013939 0
0.335703 -0.013857 0
0.326541 -0.013777 0
0.317430 -0.013698 0
0.308368 -0.013621 0
0.299355 -0.013546 0
0.290390 -0.013472 0
0.281471 -0.013399 0
0.272598 -0.013329 0
0.263769 -0.013259 0
0.254983 -0.013192 0
0.246240 -0.013126 0
0.237537 -0.013062 0
0.228874 -0.013000 0
0.220249 -0.012940 0
0.211661 -0.012881 0
0.203109 -0.012825 0
0.194591 -0.012770 0
0.186106 -0.012718 0
0.177652 -0.012667 0
0.169229 -0.012619 0
0.160833 -0.012572 0
0.152465 -0.012528 0
0.144122 -0.012486 0
0.135803 -0.012446 0
0.127506 -0.012408 0
0.119229 -0.012372 0
0.110972 -0.012339 0
0.102732 -0.012308 0
0.094508 -0.012279 0
0.086299 -0.012252 0
0.078101 -0.012227 0
0.069915 -0.012204 0
0.061738 -0.012184 0
0.053568 -0.012165 0
0.045404 -0.012149 0
0.037244 -0.012134 0
0.029088 -0.012122 0
0.020932 -0.012111 0
0.012775 -0.012097 0
0.004618 -0.009480 0
1.000000 0.013537 0
0.949594 -0.044360 0
0.922446 -0.064428 0
0.891174 -0.072501 0
0.851627 -0.087151 0
0.795927 -0.112896 0
0.706750 -0.158844 0
0.540432 -0.238091 0
0.087772 0.024326 0
-1.005760 -0.055503 0
0.000000 -0.159340 0
0.314337 0.259912 0
0.532789 0.313086 0
0.601375 0.167676 0
0.658720 0.066618 0
0.699995 0.017267 0
0.724906 -0.005678 0
0.737902 -0.016112 0
0.742942 -0.020680 0
0.742770 -0.022468 0
0.739169 -0.022917 0
0.733283 -0.022719 0
0.725852 -0.022214 0
0.717366 -0.021578 0
0.708152 -0.020902 0
0.698435 -0.020233 0
0.688372 -0.019597 0
0.678072 -0.019004 0
0.667613 -0.018460 0
0.657053 -0.017965 0
0.646433 -0.017517 0
0.635782 -0.017113 0
0.625123 -0.016749 0
0.614471 -0.016421 0
0.603840 -0.016126 0
0.593239 -0.015859 0
0.582673 -0.015618 0
0.572149 -0.015398 0
0.561671 -0.015198 0
0.551241 -0.015014 0
0.540861 -0.014845 0
0.530535 -0.014689 0
0.520262 -0.014543 0
0.510045 -0.014407 0
0.499883 -0.014279 0
0.489778 -0.014158 0
0.479729 -0.014043 0
0.469738 -0.013933 0
0.459804 -0.013828 0