# vtk DataFile Version 2.0
generated by CFD-lab course output (written by Tobias Neckel) 
ASCII

DATASET STRUCTURED_GRID
DIMENSIONS  101 21 1 
POINTS 2121 float

0.000000 0.000000 0
0.100000 0.000000 0
0.200000 0.000000 0
0.300000 0.000000 0
0.400000 0.000000 0
0.500000 0.000000 0
0.600000 0.000000 0
0.700000 0.000000 0
0.800000 0.000000 0
0.900000 0.000000 0
1.000000 0.000000 0
1.100000 0.000000 0
1.200000 0.000000 0
1.300000 0.000000 0
1.400000 0.000000 0
1.500000 0.000000 0
1.600000 0.000000 0
1.700000 0.000000 0
1.800000 0.000000 0
1.900000 0.000000 0
2.000000 0.000000 0
2.100000 0.000000 0
2.200000 0.000000 0
2.300000 0.000000 0
2.400000 0.000000 0
2.500000 0.000000 0
2.600000 0.000000 0
2.700000 0.000000 0
2.800000 0.000000 0
2.900000 0.000000 0
3.000000 0.000000 0
3.100000 0.000000 0
3.200000 0.000000 0
3.300000 0.000000 0
3.400000 0.000000 0
3.500000 0.000000 0
3.600000 0.000000 0
3.700000 0.000000 0
3.800000 0.000000 0
3.900000 0.000000 0
4.000000 0.000000 0
4.100000 0.000000 0
4.200000 0.000000 0
4.300000 0.000000 0
4.400000 0.000000 0
4.500000 0.000000 0
4.600000 0.000000 0
4.700000 0.000000 0
4.800000 0.000000 0
4.900000 0.000000 0
5.000000 0.000000 0
5.100000 0.000000 0
5.200000 0.000000 0
5.300000 0.000000 0
5.400000 0.000000 0
5.500000 0.000000 0
5.600000 0.000000 0
5.700000 0.000000 0
5.800000 0.000000 0
5.900000 0.000000 0
6.000000 0.000000 0
6.100000 0.000000 0
6.200000 0.000000 0
6.300000 0.000000 0
6.400000 0.000000 0
6.500000 0.000000 0
6.600000 0.000000 0
6.700000 0.000000 0
6.800000 0.000000 0
6.900000 0.000000 0
7.000000 0.000000 0
7.100000 0.000000 0
7.200000 0.000000 0
7.300000 0.000000 0
7.400000 0.000000 0
7.500000 0.000000 0
7.600000 0.000000 0
7.700000 0.000000 0
7.800000 0.000000 0
7.900000 0.000000 0
8.000000 0.000000 0
8.100000 0.000000 0
8.200000 0.000000 0
8.300000 0.000000 0
8.400000 0.000000 0
8.500000 0.000000 0
8.600000 0.000000 0
8.700000 0.000000 0
8.800000 0.000000 0
8.900000 0.000000 0
9.000000 0.000000 0
9.100000 0.000000 0
9.200000 0.000000 0
9.300000 0.000000 0
9.400000 0.000000 0
9.500000 0.000000 0
9.600000 0.000000 0
9.700000 0.000000 0
9.800000 0.000000 0
9.900000 0.000000 0
10.000000 0.000000 0
0.000000 0.100000 0
0.100000 0.100000 0
0.200000 0.100000 0
0.300000 0.100000 0
0.400000 0.100000 0
0.500000 0.100000 0
0.600000 0.100000 0
0.700000 0.100000 0
0.800000 0.100000 0
0.900000 0.100000 0
1.000000 0.100000 0
1.100000 0.100000 0
1.200000 0.100000 0
1.300000 0.100000 0
1.400000 0.100000 0
1.500000 0.100000 0
1.600000 0.100000 0
1.700000 0.100000 0
1.800000 0.100000 0
1.900000 0.100000 0
2.000000 0.100000 0
2.100000 0.100000 0
2.200000 0.100000 0
2.300000 0.100000 0
2.400000 0.100000 0
2.500000 0.100000 0
2.600000 0.100000 0
2.700000 0.100000 0
2.800000 0.100000 0
2.900000 0.100000 0
3.000000 0.100000 0
3.100000 0.100000 0
3.200000 0.100000 0
3.300000 0.100000 0
3.400000 0.100000 0
3.500000 0.100000 0
3.600000 0.100000 0
3.700000 0.100000 0
3.800000 0.100000 0
3.900000 0.100000 0
4.000000 0.100000 0
4.100000 0.100000 0
4.200000 0.100000 0
4.300000 0.100000 0
4.400000 0.100000 0
4.500000 0.100000 0
4.600000 0.100000 0
4.700000 0.100000 0
4.800000 0.100000 0
4.900000 0.100000 0
5.000000 0.100000 0
5.100000 0.100000 0
5.200000 0.100000 0
5.300000 0.100000 0
5.400000 0.100000 0
5.500000 0.100000 0
5.600000 0.100000 0
5.700000 0.100000 0
5.800000 0.100000 0
5.900000 0.100000 0
6.000000 0.100000 0
6.100000 0.100000 0
6.200000 0.100000 0
6.300000 0.100000 0
6.400000 0.100000 0
6.500000 0.100000 0
6.600000 0.100000 0
6.700000 0.100000 0
6.800000 0.100000 0
6.900000 0.100000 0
7.000000 0.100000 0
7.100000 0.100000 0
7.200000 0.100000 0
7.300000 0.100000 0
7.400000 0.100000 0
7.500000 0.100000 0
7.600000 0.100000 0
7.700000 0.100000 0
7.800000 0.100000 0
7.900000 0.100000 0
8.000000 0.100000 0
8.100000 0.100000 0
8.200000 0.100000 0
8.300000 0.100000 0
8.400000 0.100000 0
8.500000 0.100000 0
8.600000 0.100000 0
8.700000 0.100000 0
8.800000 0.100000 0
8.900000 0.100000 0
9.000000 0.100000 0
9.100000 0.100000 0
9.200000 0.100000 0
9.300000 0.100000 0
9.400000 0.100000 0
9.500000 0.100000 0
9.600000 0.100000 0
9.700000 0.100000 0
9.800000 0.100000 0
9.900000 0.100000 0
10.000000 0.100000 0
0.000000 0.200000 0
0.100000 0.200000 0
0.200000 0.200000 0
0.300000 0.200000 0
0.400000 0.200000 0
0.500000 0.200000 0
0.600000 0.200000 0
0.700000 0.200000 0
0.800000 0.200000 0
0.900000 0.200000 0
1.000000 0.200000 0
1.100000 0.200000 0
1.200000 0.200000 0
1.300000 0.200000 0
1.400000 0.200000 0
1.500000 0.200000 0
1.600000 0.200000 0
1.700000 0.200000 0
1.800000 0.200000 0
1.900000 0.200000 0
2.000000 0.200000 0
2.100000 0.200000 0
2.200000 0.200000 0
2.300000 0.200000 0
2.400000 0.200000 0
2.500000 0.200000 0
2.600000 0.200000 0
2.700000 0.200000 0
2.800000 0.200000 0
2.900000 0.200000 0
3.000000 0.200000 0
3.100000 0.200000 0
3.200000 0.200000 0
3.300000 0.200000 0
3.400000 0.200000 0
3.500000 0.200000 0
3.600000 0.200000 0
3.700000 0.200000 0
3.800000 0.200000 0
3.900000 0.200000 0
4.000000 0.200000 0
4.100000 0.200000 0
4.200000 0.200000 0
4.300000 0.200000 0
4.400000 0.200000 0
4.500000 0.200000 0
4.600000 0.200000 0
4.700000 0.200000 0
4.800000 0.200000 0
4.900000 0.200000 0
5.000000 0.200000 0
5.100000 0.200000 0
5.200000 0.200000 0
5.300000 0.200000 0
5.400000 0.200000 0
5.500000 0.200000 0
5.600000 0.200000 0
5.700000 0.200000 0
5.800000 0.200000 0
5.900000 0.200000 0
6.000000 0.200000 0
6.100000 0.200000 0
6.200000 0.200000 0
6.300000 0.200000 0
6.400000 0.200000 0
6.500000 0.200000 0
6.600000 0.200000 0
6.700000 0.200000 0
6.800000 0.200000 0
6.900000 0.200000 0
7.000000 0.200000 0
7.100000 0.200000 0
7.200000 0.200000 0
7.300000 0.200000 0
7.400000 0.200000 0
7.500000 0.200000 0
7.600000 0.200000 0
7.700000 0.200000 0
7.800000 0.200000 0
7.900000 0.200000 0
8.000000 0.200000 0
8.100000 0.200000 0
8.200000 0.200000 0
8.300000 0.200000 0
8.400000 0.200000 0
8.500000 0.200000 0
8.600000 0.200000 0
8.700000 0.200000 0
8.800000 0.200000 0
8.900000 0.200000 0
9.000000 0.200000 0
9.100000 0.200000 0
9.200000 0.200000 0
9.300000 0.200000 0
9.400000 0.200000 0
9.500000 0.200000 0
9.600000 0.200000 0
9.700000 0.200000 0
9.800000 0.200000 0
9.900000 0.200000 0
10.000000 0.200000 0
0.000000 0.300000 0
0.100000 0.300000 0
0.200000 0.300000 0
0.300000 0.300000 0
0.400000 0.300000 0
0.500000 0.300000 0
0.600000 0.300000 0
0.700000 0.300000 0
0.800000 0.300000 0
0.900000 0.300000 0
1.000000 0.300000 0
1.100000 0.300000 0
1.200000 0.300000 0
1.300000 0.300000 0
1.400000 0.300000 0
1.500000 0.300000 0
1.600000 0.300000 0
1.700000 0.300000 0
1.800000 0.300000 0
1.900000 0.300000 0
2.000000 0.300000 0
2.100000 0.300000 0
2.200000 0.300000 0
2.300000 0.300000 0
2.400000 0.300000 0
2.500000 0.300000 0
2.600000 0.300000 0
2.700000 0.300000 0
2.800000 0.300000 0
2.900000 0.300000 0
3.000000 0.300000 0
3.100000 0.300000 0
3.200000 0.300000 0
3.300000 0.300000 0
3.400000 0.300000 0
3.500000 0.300000 0
3.600000 0.300000 0
3.700000 0.300000 0
3.800000 0.300000 0
3.900000 0.300000 0
4.000000 0.300000 0
4.100000 0.300000 0
4.200000 0.300000 0
4.300000 0.300000 0
4.400000 0.300000 0
4.500000 0.300000 0
4.600000 0.300000 0
4.700000 0.300000 0
4.800000 0.300000 0
4.900000 0.300000 0
5.000000 0.300000 0
5.100000 0.300000 0
5.200000 0.300000 0
5.300000 0.300000 0
5.400000 0.300000 0
5.500000 0.300000 0
5.600000 0.300000 0
5.700000 0.300000 0
5.800000 0.300000 0
5.900000 0.300000 0
6.000000 0.300000 0
6.100000 0.300000 0
6.200000 0.300000 0
6.300000 0.300000 0
6.400000 0.300000 0
6.500000 0.300000 0
6.600000 0.300000 0
6.700000 0.300000 0
6.800000 0.300000 0
6.900000 0.300000 0
7.000000 0.300000 0
7.100000 0.300000 0
7.200000 0.300000 0
7.300000 0.300000 0
7.400000 0.300000 0
7.500000 0.300000 0
7.600000 0.300000 0
7.700000 0.300000 0
7.800000 0.300000 0
7.900000 0.300000 0
8.000000 0.300000 0
8.100000 0.300000 0
8.200000 0.300000 0
8.300000 0.300000 0
8.400000 0.300000 0
8.500000 0.300000 0
8.600000 0.300000 0
8.700000 0.300000 0
8.800000 0.300000 0
8.900000 0.300000 0
9.000000 0.300000 0
9.100000 0.300000 0
9.200000 0.300000 0
9.300000 0.300000 0
9.400000 0.300000 0
9.500000 0.300000 0
9.600000 0.300000 0
9.700000 0.300000 0
9.800000 0.300000 0
9.900000 0.300000 0
10.000000 0.300000 0
0.000000 0.400000 0
0.100000 0.400000 0
0.200000 0.400000 0
0.300000 0.400000 0
0.400000 0.400000 0
0.500000 0.400000 0
0.600000 0.400000 0
0.700000 0.400000 0
0.800000 0.400000 0
0.900000 0.400000 0
1.000000 0.400000 0
1.100000 0.400000 0
1.200000 0.400000 0
1.300000 0.400000 0
1.400000 0.400000 0
1.500000 0.400000 0
1.600000 0.400000 0
1.700000 0.400000 0
1.800000 0.400000 0
1.900000 0.400000 0
2.000000 0.400000 0
2.100000 0.400000 0
2.200000 0.400000 0
2.300000 0.400000 0
2.400000 0.400000 0
2.500000 0.400000 0
2.600000 0.400000 0
2.700000 0.400000 0
2.800000 0.400000 0
2.900000 0.400000 0
3.000000 0.400000 0
3.100000 0.400000 0
3.200000 0.400000 0
3.300000 0.400000 0
3.400000 0.400000 0
3.500000 0.400000 0
3.600000 0.400000 0
3.700000 0.400000 0
3.800000 0.400000 0
3.900000 0.400000 0
4.000000 0.400000 0
4.100000 0.400000 0
4.200000 0.400000 0
4.300000 0.400000 0
4.400000 0.400000 0
4.500000 0.400000 0
4.600000 0.400000 0
4.700000 0.400000 0
4.800000 0.400000 0
4.900000 0.400000 0
5.000000 0.400000 0
5.100000 0.400000 0
5.200000 0.400000 0
5.300000 0.400000 0
5.400000 0.400000 0
5.500000 0.400000 0
5.600000 0.400000 0
5.700000 0.400000 0
5.800000 0.400000 0
5.900000 0.400000 0
6.000000 0.400000 0
6.100000 0.400000 0
6.200000 0.400000 0
6.300000 0.400000 0
6.400000 0.400000 0
6.500000 0.400000 0
6.600000 0.400000 0
6.700000 0.400000 0
6.800000 0.400000 0
6.900000 0.400000 0
7.000000 0.400000 0
7.100000 0.400000 0
7.200000 0.400000 0
7.300000 0.400000 0
7.400000 0.400000 0
7.500000 0.400000 0
7.600000 0.400000 0
7.700000 0.400000 0
7.800000 0.400000 0
7.900000 0.400000 0
8.000000 0.400000 0
8.100000 0.400000 0
8.200000 0.400000 0
8.300000 0.400000 0
8.400000 0.400000 0
8.500000 0.400000 0
8.600000 0.400000 0
[...]
POINT_DATA 2121 

VECTORS velocity float
0.500000 0.000000 0
0.000082 0.000000 0
0.000103 0.000000 0
0.000123 0.000000 0
0.000148 0.000000 0
0.000178 0.000000 0
0.000211 0.000000 0
0.000242 0.000000 0
0.000265 0.000000 0
0.000269 0.000000 0
0.000245 0.000000 0
0.000184 0.000000 0
0.000080 0.000000 0
-0.000069 0.000000 0
-0.000255 0.000000 0
-0.000460 0.000000 0
-0.000651 0.000000 0
-0.000783 0.000000 0
-0.000813 0.000000 0
-0.000714 0.000000 0
-0.000495 0.000000 0
-0.000188 0.000000 0
0.000159 0.000000 0
0.000503 0.000000 0
0.000805 0.000000 0
0.001039 0.000000 0
0.001193 0.000000 0
0.001267 0.000000 0
0.001268 0.000000 0
0.001213 0.000000 0
0.001126 0.000000 0
0.001033 0.000000 0
0.000959 0.000000 0
0.000919 0.000000 0
0.000920 0.000000 0
0.000952 0.000000 0
0.000987 0.000000 0
0.000992 0.000000 0
0.000936 0.000000 0
0.000786 0.000000 0
0.000521 0.000000 0
0.000132 0.000000 0
-0.000378 0.000000 0
-0.000980 0.000000 0
-0.001619 0.000000 0
-0.002192 0.000000 0
-0.002540 0.000000 0
-0.002463 0.000000 0
-0.001774 0.000000 0
-0.000403 0.000000 0
0.001485 0.000000 0
0.003460 0.000000 0
0.004926 0.000000 0
0.005635 0.000000 0
0.005914 0.000000 0
0.005966 0.000000 0
0.005891 0.000000 0
0.005747 0.000000 0
0.005567 0.000000 0
0.005370 0.000000 0
0.005152 0.000000 0
0.004878 0.000000 0
0.004606 0.000000 0
0.004373 0.000000 0
0.004190 0.000000 0
0.004055 0.000000 0
0.003961 0.000000 0
0.003900 0.000000 0
0.003865 0.000000 0
0.003850 0.000000 0
0.003847 0.000000 0
0.003854 0.000000 0
0.003866 0.000000 0
0.003881 0.000000 0
0.003897 0.000000 0
0.003913 0.000000 0
0.003928 0.000000 0
0.003941 0.000000 0
0.003952 0.000000 0
0.003962 0.000000 0
0.003969 0.000000 0
0.003975 0.000000 0
0.003979 0.000000 0
0.003982 0.000000 0
0.003983 0.000000 0
0.003983 0.000000 0
0.003982 0.000000 0
0.003981 0.000000 0
0.003978 0.000000 0
0.003975 0.000000 0
0.003972 0.000000 0
0.003968 0.000000 0
0.003964 0.000000 0
0.003960 0.000000 0
0.003956 0.000000 0
0.003951 0.000000 0
0.003947 0.000000 0
0.003943 0.000000 0
0.003939 0.000000 0
0.003935 0.000000 0
0.003941 0.000000 0
1.000000 0.000028 0
0.986337 -0.013626 0
0.989527 -0.022346 0
0.999514 -0.029462 0
1.016160 -0.035955 0
1.039402 -0.041936 0
1.068881 -0.047026 0
1.103515 -0.050539 0
1.141198 -0.051729 0
1.178683 -0.050343 0
1.213027 -0.046906 0
1.242478 -0.042333 0
1.266451 -0.037494 0
1.285204 -0.033022 0
1.299510 -0.029276 0
1.310361 -0.026347 0
1.318676 -0.024076 0
1.325010 -0.022117 0
1.329351 -0.020056 0
1.331128 -0.017601 0
1.329519 -0.014700 0
1.323865 -0.011534 0
1.313881 -0.008415 0
1.299664 -0.005662 0
1.281650 -0.003523 0
1.260510 -0.002142 0
1.237043 -0.001556 0
1.212095 -0.001709 0
1.186499 -0.002475 0
1.161049 -0.003680 0
1.136489 -0.005118 0
1.113533 -0.006582 0
1.092847 -0.007896 0
1.074992 -0.008946 0
1.060322 -0.009690 0
1.048875 -0.010168 0
1.040334 -0.010504 0
1.034124 -0.010843 0
1.029654 -0.011326 0
1.026507 -0.012082 0
1.024482 -0.013215 0
1.023559 -0.014786 0
1.023825 -0.016806 0
1.025380 -0.019205 0
1.028258 -0.021800 0
1.032349 -0.024235 0
1.037342 -0.025951 0
1.042682 -0.026216 0
1.047586 -0.024316 0
1.051136 -0.019903 0
1.052481 -0.013406 0
1.051097 -0.006208 0
1.046968 -0.000382 0
1.040505 0.002887 0
1.032453 0.004144 0
1.023561 0.004315 0
1.014372 0.003914 0
1.005232 0.003216 0
0.996342 0.002376 0
0.987813 0.001479 0
0.979694 0.000540 0
0.971994 -0.000482 0
0.964682 -0.001520 0
0.957718 -0.002429 0
0.951049 -0.003151 0
0.944612 -0.003685 0
0.938346 -0.004055 0
0.932198 -0.004290 0
0.926121 -0.004421 0
0.920080 -0.004475 0
0.914047 -0.004474 0
0.908004 -0.004435 0
0.901936 -0.004374 0
0.895836 -0.004299 0
0.889699 -0.004220 0
0.883524 -0.004140 0
0.877311 -0.004064 0
0.871062 -0.003993 0
0.864779 -0.003930 0
0.858467 -0.003874 0
0.852128 -0.003825 0
0.845767 -0.003784 0
0.839385 -0.003750 0
0.832988 -0.003722 0
0.826577 -0.003700 0
0.820156 -0.003682 0
0.813727 -0.003669 0
0.807292 -0.003661 0
0.800854 -0.003655 0
0.794416 -0.003653 0
0.787978 -0.003654 0
0.781543 -0.003657 0
0.775114 -0.003663 0
0.768694 -0.003673 0
0.762284 -0.003685 0
0.755890 -0.003701 0
0.749517 -0.003713 0
0.743171 -0.003701 0
0.736865 -0.003443 0
0.730630 -0.004127 0
0.724809 -0.005112 0
1.000000 0.000005 0
0.987431 -0.015374 0
0.988815 -0.029472 0
0.995937 -0.042928 0
1.009630 -0.056183 0
1.030572 -0.069017 0
1.059071 -0.080409 0
1.094451 -0.088612 0
1.134513 -0.091463 0
1.173912 -0.088124 0
1.208367 -0.080090 0
1.236044 -0.069719 0
1.256790 -0.059022 0
1.271348 -0.049354 0
1.280949 -0.041452 0
1.287035 -0.035461 0
1.290927 -0.030944 0
1.293426 -0.026970 0
1.294434 -0.022413 0
1.292862 -0.016463 0
1.287189 -0.009032 0
1.276301 -0.000658 0
1.259613 0.007906 0
1.237123 0.015936 0
1.209291 0.022859 0
1.176856 0.028312 0
1.140721 0.032119 0
1.101872 0.034248 0
1.061350 0.034751 0
1.020239 0.033715 0
0.979677 0.031220 0
0.940855 0.027347 0
0.904971 0.022245 0
0.873094 0.016230 0
0.845969 0.009822 0
0.823858 0.003692 0
0.806488 -0.001544 0
0.793203 -0.005615 0
0.783194 -0.008678 0
0.775672 -0.011123 0
0.770007 -0.013348 0
0.765739 -0.015638 0
0.762503 -0.018116 0
0.759959 -0.020728 0
0.757752 -0.023265 0
0.755536 -0.025380 0
0.753051 -0.026628 0
0.750234 -0.026540 0
0.747318 -0.024749 0
0.744838 -0.021190 0
0.743456 -0.016256 0
0.743612 -0.010782 0
0.745134 -0.005704 0
0.746989 -0.001780 0
0.748308 0.000649 0
0.748858 0.001785 0
0.748682 0.002034 0
0.747897 0.001735 0
0.746624 0.001123 0
0.744964 0.000352 0
0.742990 -0.000477 0
0.740719 -0.001283 0
0.738111 -0.002019 0
0.735198 -0.002662 0
0.732047 -0.003190 0
0.728726 -0.003593 0
0.725289 -0.003882 0
0.721779 -0.004070 0
0.718224 -0.004178 0
0.714644 -0.004222 0
0.711053 -0.004219 0
0.707458 -0.004184 0
0.703864 -0.004128 0
0.700273 -0.004059 0
0.696685 -0.003984 0
0.693101 -0.003907 0
0.689521 -0.003834 0
0.685942 -0.003764 0
0.682364 -0.003701 0
0.678787 -0.003645 0
0.675210 -0.003595 0
0.671633 -0.003553 0
0.668054 -0.003517 0
0.664475 -0.003487 0
0.660895 -0.003464 0
0.657314 -0.003445 0
0.653733 -0.003432 0
0.650153 -0.003423 0
0.646573 -0.003419 0
0.642995 -0.003419 0
0.639419 -0.003423 0
0.635848 -0.003432 0
0.632283 -0.003446 0
0.628726 -0.003466 0
0.625181 -0.003493 0
0.621651 -0.003529 0
0.618145 -0.003577 0
0.614679 -0.003643 0
0.611298 -0.003754 0
0.608278 -0.004240 0
0.604551 -0.004709 0
1.000000 -0.000006 0
0.988528 -0.018737 0
0.990552 -0.037595 0
0.997741 -0.057019 0
1.011464 -0.077333 0
1.033291 -0.098120 0
1.064736 -0.117647 0
1.106248 -0.132724 0
1.156600 -0.137934 0
1.204143 -0.130940 0
1.242276 -0.115781 0
1.270155 -0.097499 0
1.288999 -0.079541 0
1.300466 -0.063923 0
1.306471 -0.051706 0
1.309146 -0.043067 0
1.310543 -0.037210 0
1.312146 -0.032367 0
1.314112 -0.026235 0
1.314735 -0.017098 0
1.311325 -0.004883 0
1.301998 0.009299 0
1.285953 0.024020 0
1.263365 0.037917 0
1.234979 0.050001 0
1.201801 0.059684 0
1.164925 0.066685 0
1.125468 0.070920 0
1.084553 0.072415 0
1.043294 0.071250 0
1.002778 0.067522 0
0.964014 0.061381 0
0.927872 0.053122 0
0.895008 0.043313 0
0.865812 0.032803 0
0.840406 0.022569 0
0.818733 0.013408 0
0.800652 0.005709 0
0.785947 -0.000537 0
0.774333 -0.005638 0
0.765477 -0.010024 0
0.758979 -0.014026 0
0.754368 -0.017769 0
0.751130 -0.021197 0
0.748747 -0.024120 0
0.746758 -0.026278 0
0.744832 -0.027392 0
0.742836 -0.027226 0
0.740874 -0.025663 0
0.739242 -0.022783 0
0.738299 -0.018923 0
0.738267 -0.014630 0
0.739085 -0.010501 0
0.740465 -0.007029 0
0.741933 -0.004468 0
0.743071 -0.002802 0
0.743658 -0.001868 0
0.743622 -0.001469 0
0.742975 -0.001433 0
0.741769 -0.001629 0
0.740066 -0.001959 0
0.737933 -0.002347 0
0.735445 -0.002741 0
0.732663 -0.003108 0
0.729647 -0.003422 0
0.726452 -0.003671 0
0.723127 -0.003851 0
0.719711 -0.003968 0
0.716234 -0.004030 0
0.712717 -0.004047 0
0.709176 -0.004031 0
0.705621 -0.003989 0
0.702060 -0.003932 0
0.698496 -0.003864 0
0.694932 -0.003791 0
0.691369 -0.003718 0
0.687808 -0.003647 0
0.684249 -0.003580 0
0.680691 -0.003518 0
0.677134 -0.003463 0
0.673578 -0.003414 0
0.670022 -0.003371 0
0.666466 -0.003335 0
0.662910 -0.003306 0
0.659354 -0.003282 0
0.655798 -0.003264 0
0.652242 -0.003251 0
0.648687 -0.003243 0
0.645133 -0.003240 0
0.641581 -0.003243 0
0.638032 -0.003250 0
0.634487 -0.003264 0
0.630946 -0.003285 0
0.627413 -0.003314 0
0.623888 -0.003353 0
0.620376 -0.003408 0
0.616882 -0.003484 0
0.613412 -0.003598 0
0.609976 -0.003785 0
0.606575 -0.004123 0
0.602896 -0.004396 0
1.000000 -0.000014 0
0.988491 -0.022222 0
0.989833 -0.045428 0
0.995621 -0.070583 0
1.007704 -0.098475 0
1.028809 -0.129032 0
1.062559 -0.160109 0
1.112164 -0.187219 0
1.181618 -0.196100 0
1.239552 -0.180543 0
1.278056 -0.152845 0
1.301411 -0.123186 0
1.313871 -0.096075 0
1.318062 -0.073568 0
1.316365 -0.056875 0
1.311565 -0.046277 0
1.306612 -0.040687 0
1.304286 -0.037282 0
1.305878 -0.031745 0
1.309168 -0.020419 0
1.309227 -0.003039 0
1.302295 0.017971 0
1.287493 0.039796 0
1.265476 0.060167 0
1.237483 0.077680 0
1.204810 0.091623 0
1.168656 0.101710 0
1.130138 0.107878 0
1.090332 0.110182 0
1.050282 0.108746 0
1.010969 0.103757 0
0.973253 0.095510 0
0.937803 0.084508 0
0.905057 0.071547 0
0.875239 0.057682 0
0.848438 0.044029 0
0.824718 0.031467 0
0.804165 0.020428 0
0.786900 0.010898 0
0.773027 0.002603 0
0.762508 -0.004738 0
0.755067 -0.011271 0
0.750206 -0.017009 0
0.747300 -0.021850 0
0.745692 -0.025636 0
0.744796 -0.028207 0
0.744171 -0.029450 0
0.743573 -0.029325 0
0.742958 -0.027898 0
0.742432 -0.025358 0
0.742166 -0.022024 0
0.742274 -0.018311 0
0.742742 -0.014644 0
0.743424 -0.011372 0
0.744084 -0.008701 0
0.744495 -0.006682 0
0.744506 -0.005259 0
0.744045 -0.004326 0
0.743101 -0.003767 0
0.741697 -0.003482 0
0.739876 -0.003384 0
0.737686 -0.003405 0
0.735183 -0.003492 0
0.732417 -0.003607 0
0.729438 -0.003721 0
0.726291 -0.003817 0
0.723015 -0.003884 0
0.719645 -0.003920 0
0.716207 -0.003926 0
0.712721 -0.003907 0
0.709204 -0.003867 0
0.705666 -0.003811 0
0.702115 -0.003745 0
0.698557 -0.003674 0
0.694994 -0.003600 0
0.691430 -0.003527 0
0.687866 -0.003456 0
0.684302 -0.003390 0
0.680739 -0.003329 0
0.677176 -0.003275 0
0.673613 -0.003226 0
0.670051 -0.003184 0
0.666489 -0.003148 0
0.662927 -0.003118 0
0.659365 -0.003095 0
0.655804 -0.003077 0
0.652243 -0.003065 0
0.648683 -0.003058 0
0.645124 -0.003056 0
0.641567 -0.003061 0
0.638012 -0.003072 0
0.634460 -0.003089 0
0.630911 -0.003115 0
0.627368 -0.003151 0
0.623831 -0.003199 0
0.620300 -0.003265 0
0.616778 -0.003355 0
0.613263 -0.003481 0
0.609747 -0.003660 0
0.606200 -0.003903 0
0.602527 -0.004089 0
1.000000 -0.000021 0
0.987889 -0.024865 0
0.987249 -0.051468 0
0.989599 -0.081633 0
0.997077 -0.117264 0
1.013565 -0.159718 0
1.045724 -0.207746 0
1.102721 -0.258526 0
1.205663 -0.272064 0
1.267853 -0.234121 0
1.293001 -0.184382 0
1.300948 -0.140058 0
1.299889 -0.102935 0
1.291552 -0.073159 0
1.277410 -0.051952 0
1.260195 -0.040058 0
1.243034 -0.036674 0
1.230403 -0.038376 0
1.226938 -0.037859 0
1.231598 -0.027190 0
1.236789 -0.004753 0
1.234172 0.024290 0
1.222742 0.054097 0
1.204345 0.081185 0
1.180791 0.103923 0
1.153385 0.121769 0
1.123031 0.134615 0
1.090493 0.142501 0
1.056547 0.145528 0
1.022011 0.143870 0
0.987696 0.137809 0
0.954314 0.127804 0
0.922396 0.114576 0
0.892262 0.099134 0
0.864084 0.082679 0
0.838021 0.066347 0
0.814357 0.050938 0
0.793537 0.036784 0
0.776066 0.023858 0
0.762310 0.012011 0
0.752343 0.001193 0
0.745893 -0.008467 0
0.742421 -0.016745 0
0.741182 -0.023426 0
0.741373 -0.028359 0
0.742274 -0.031500 0
0.743351 -0.032912 0
0.744284 -0.032756 0
0.744956 -0.031264 0
0.745397 -0.028734 0
0.745707 -0.025509 0
0.745979 -0.021949 0
0.746245 -0.018394 0
0.746465 -0.015114 0
0.746541 -0.012282 0
0.746366 -0.009967 0
0.745859 -0.008161 0
0.744975 -0.006807 0
0.743704 -0.005828 0
0.742058 -0.005147 0
0.740066 -0.004690 0
0.737764 -0.004397 0
0.735195 -0.004216 0
0.732396 -0.004107 0
0.729409 -0.004039 0
0.726269 -0.003991 0
0.723010 -0.003948 0
0.719658 -0.003902 0
0.716238 -0.003849 0
0.712769 -0.003787 0
0.709263 -0.003718 0
0.705734 -0.003643 0
0.702188 -0.003565 0
0.698632 -0.003486 0
0.695069 -0.003408 0
0.691503 -0.003333 0
0.687934 -0.003262 0
0.684365 -0.003195 0
0.680796 -0.003135 0
0.677226 -0.003080 0
0.673658 -0.003032 0
0.670089 -0.002990 0
0.666521 -0.002955 0
0.662953 -0.002925 0
0.659386 -0.002902 0
0.655819 -0.002885 0
0.652252 -0.002873 0
0.648686 -0.002867 0
0.645122 -0.002867 0
0.641558 -0.002873 0
0.637996 -0.002886 0
0.634437 -0.002907 0
0.630879 -0.002936 0
0.627324 -0.002976 0
0.623772 -0.003029 0
0.620223 -0.003098 0
0.616674 -0.003190 0
0.613121 -0.003310 0
0.609554 -0.003465 0
0.605952 -0.003647 0
0.602282 -0.003787 0
1.000000 -0.000027 0
0.986860 -0.025766 0
0.982961 -0.053881 0
0.979446 -0.087154 0
0.978054 -0.129185 0
0.982800 -0.184421 0
1.002790 -0.256008 0
1.056656 -0.353901 0
1.205408 -0.367976 0
1.243566 -0.274624 0
1.225014 -0.192683 0
1.202297 -0.136816 0
1.182091 -0.093422 0
1.159004 -0.057832 0
1.131280 -0.032261 0
1.098303 -0.018644 0
1.063664 -0.017638 0
1.032171 -0.027929 0
1.011939 -0.039684 0
1.010326 -0.037013 0
1.021981 -0.012355 0
1.031309 0.025275 0
1.031670 0.062880 0
1.027503 0.095376 0
1.020376 0.121896 0
1.010441 0.142640 0
0.997386 0.157859 0
0.981142 0.167619 0
0.962016 0.171921 0
0.940606 0.170854 0
0.917633 0.164711 0
0.893778 0.154067 0
0.869584 0.139817 0
0.845461 0.123116 0
0.821813 0.105180 0
0.799214 0.087014 0
0.778487 0.069207 0
0.760589 0.051976 0
0.746363 0.035382 0
0.736286 0.019583 0
0.730350 0.004937 0
0.728114 -0.008092 0
0.728813 -0.019041 0
0.731456 -0.027545 0
0.735069 -0.033471 0
0.738855 -0.036928 0
0.742275 -0.038203 0
0.745041 -0.037674 0
0.747074 -0.035754 0
0.748436 -0.032851 0
0.749258 -0.029349 0
0.749676 -0.025593 0
0.749790 -0.021874 0
0.749647 -0.018411 0
0.749247 -0.015346 0
0.748570 -0.012744 0
0.747590 -0.010611 0
0.746293 -0.008913 0
0.744681 -0.007592 0
0.742764 -0.006587 0
0.740565 -0.005834 0
0.738112 -0.005277 0
0.735435 -0.004867 0
0.732565 -0.004565 0
0.729533 -0.004337 0
0.726368 -0.004160 0
0.723096 -0.004016 0
0.719740 -0.003892 0
0.716320 -0.003780 0
0.712851 -0.003675 0
0.709347 -0.003575 0
0.705819 -0.003479 0
0.702272 -0.003386 0
0.698714 -0.003298 0
0.695148 -0.003214 0
0.691577 -0.003135 0
0.688003 -0.003062 0
0.684428 -0.002995 0
0.680853 -0.002934 0
0.677277 -0.002880 0
0.673702 -0.002832 0
0.670127 -0.002790 0
0.666553 -0.002755 0
0.662979 -0.002726 0
0.659405 -0.002703 0
0.655832 -0.002686 0
0.652260 -0.002675 0
0.648689 -0.002670 0
0.645118 -0.002671 0
0.641548 -0.002679 0
0.637979 -0.002693 0
0.634411 -0.002715 0
0.630844 -0.002746 0
0.627278 -0.002787 0
0.623712 -0.002841 0
0.620145 -0.002910 0
0.616574 -0.002996 0
0.612994 -0.003104 0
0.609397 -0.003234 0
0.605771 -0.003375 0
0.602104 -0.003487 0
1.000000 -0.000031 0
0.985560 -0.024122 0
0.977495 -0.050796 0
0.966081 -0.083469 0
0.951402 -0.127361 0
0.934799 -0.191197 0
0.922158 -0.288345 0
0.934339 -0.467886 0
1.079133 -0.465717 0
1.057980 -0.260470 0
0.952280 -0.149856 0
0.891298 -0.103878 0
0.859088 -0.066385 0
0.826385 -0.029092 0
0.774951 0.002006 0
0.712469 0.020815 0
0.650613 0.022715 0
0.599939 0.006606 0
0.569050 -0.022756 0
0.568675 -0.043974 0
0.598838 -0.032479 0
0.646423 0.007857 0
0.692315 0.051161 0
0.727614 0.085736 0
0.756020 0.114242 0
0.779110 0.138016 0
0.795865 0.157171 0
0.805965 0.171127 0
0.809739 0.179321 0
0.807948 0.181511 0
0.801514 0.177893 0
0.791328 0.169109 0
0.778214 0.156150 0
0.763032 0.140163 0
0.746837 0.122182 0
0.730966 0.102930 0
0.716908 0.082821 0
0.706025 0.062165 0
0.699255 0.041418 0
0.696969 0.021281 0
0.698958 0.002622 0
0.704388 -0.013672 0
0.711947 -0.026830 0
0.720343 -0.036425 0
0.728549 -0.042501 0
0.735870 -0.045449 0
0.741920 -0.045841 0
0.746570 -0.044298 0
0.749878 -0.041402 0
0.752018 -0.037661 0
0.753210 -0.033491 0
0.753674 -0.029224 0
0.753590 -0.025108 0
0.753083 -0.021315 0
0.752231 -0.017948 0
0.751076 -0.015053 0
0.749637 -0.012628 0
0.747928 -0.010641 0
0.745961 -0.009042 0
0.743752 -0.007774 0
0.741319 -0.006781 0
0.738683 -0.006009 0
0.735867 -0.005411 0
0.732895 -0.004948 0
0.729790 -0.004585 0
0.726573 -0.004297 0
0.723266 -0.004063 0
0.719886 -0.003869 0
0.716449 -0.003703 0
0.712969 -0.003558 0
0.709457 -0.003428 0
0.705921 -0.003311 0
0.702368 -0.003204 0
0.698803 -0.003105 0
0.695231 -0.003014 0
0.691654 -0.002931 0
0.688073 -0.002856 0
0.684492 -0.002788 0
0.680910 -0.002727 0
0.677327 -0.002672 0
0.673746 -0.002625 0
0.670164 -0.002584 0
0.666584 -0.002550 0
0.663004 -0.002521 0
0.659425 -0.002499 0
0.655846 -0.002483 0
0.652268 -0.002472 0
0.648690 -0.002468 0
0.645113 -0.002469 0
0.641537 -0.002477 0
0.637960 -0.002492 0
0.634385 -0.002515 0
0.630808 -0.002546 0
0.627231 -0.002587 0
0.623653 -0.002638 0
0.620071 -0.002703 0
0.616482 -0.002782 0
0.612883 -0.002876 0
0.609268 -0.002985 0
0.605631 -0.003096 0
0.601965 -0.003189 0
1.000000 -0.000034 0
0.984291 -0.019556 0
0.972102 -0.041144 0
0.952553 -0.067804 0
0.923060 -0.104645 0
0.878973 -0.161920 0
0.811750 -0.262290 0
0.706402 -0.517619 0
0.524205 -0.498361 0
0.000560 -0.154513 0
0.372636 -0.032743 0
0.295659 -0.050368 0
0.301552 -0.035252 0
0.293216 0.019562 0
0.243657 0.074913 0
0.175782 0.098951 0
0.110210 0.088149 0
0.064527 0.046891 0
0.049273 -0.015162 0
0.066718 -0.073543 0
0.116071 -0.096846 0
0.196944 -0.074945 0
0.293035 -0.025055 0
0.382503 0.024928 0
0.458025 0.063658 0
0.518114 0.096052 0
0.565803 0.124261 0
0.602729 0.147003 0
0.629665 0.163195 0
0.647762 0.172336 0
0.658279 0.174589 0
0.662471 0.170624 0
0.661667 0.161370 0
0.657418 0.147749 0
0.651564 0.130503 0
0.646111 0.110200 0
0.642949 0.087405 0
0.643546 0.062886 0
0.648723 0.037696 0
0.658530 0.013137 0
0.671713 -0.009225 0
0.686473 -0.027824 0
0.701241 -0.041739 0
0.714938 -0.050890 0
0.726916 -0.055740 0
0.736852 -0.057041 0
0.744663 -0.055646 0
0.750441 -0.052376 0
0.754401 -0.047944 0
0.756827 -0.042926 0
0.758025 -0.037748 0
0.758280 -0.032715 0
0.757835 -0.028025 0
0.756873 -0.023795 0
0.755522 -0.020081 0
0.753866 -0.016893 0
0.751954 -0.014207 0
0.749820 -0.011980 0
0.747485 -0.010160 0
0.744965 -0.008688 0
0.742276 -0.007508 0
0.739435 -0.006568 0
0.736457 -0.005822 0
0.733359 -0.005230 0
0.730158 -0.004758 0
0.726869 -0.004379 0
0.723508 -0.004072 0
0.720088 -0.003818 0
0.716622 -0.003606 0
0.713120 -0.003426 0
0.709590 -0.003270 0
0.706040 -0.003133 0
0.702475 -0.003012 0
0.698901 -0.002904 0
0.695319 -0.002807 0
0.691733 -0.002721 0
0.688145 -0.002643 0
0.684556 -0.002574 0
0.680967 -0.002513 0
0.677377 -0.002459 0
0.673789 -0.002412 0
0.670201 -0.002371 0
0.666614 -0.002338 0
0.663028 -0.002310 0
0.659443 -0.002289 0
0.655859 -0.002273 0
0.652275 -0.002263 0
0.648691 -0.002259 0
0.645108 -0.002261 0
0.641525 -0.002269 0
0.637942 -0.002284 0
0.634358 -0.002306 0
0.630773 -0.002336 0
0.627187 -0.002375 0
0.623597 -0.002423 0
0.620003 -0.002482 0
0.616401 -0.002552 0
0.612789 -0.002633 0
0.609163 -0.002725 0
0.605519 -0.002815 0
0.601855 -0.002893 0
1.000000 -0.000034 0
0.983431 -0.012519 0
0.968462 -0.025802 0
0.943440 -0.041170 0
0.903956 -0.060524 0
0.841191 -0.086630 0
0.736350 -0.122516 0
0.547715 -0.187084 0
0.072008 -0.000799 0
-0.502748 0.117017 0
0.000000 -0.000068 0
-0.037028 -0.054749 0
-0.071561 -0.070685 0
-0.111925 0.022059 0
-0.151186 0.112697 0
-0.195485 0.147520 0
-0.234541 0.127227 0
-0.252675 0.060800 0
-0.238376 -0.031690 0
-0.205370 -0.117515 0
-0.158838 -0.169448 0
-0.093300 -0.175850 0
-0.005103 -0.141142 0
0.097558 -0.085997 0
0.196433 -0.028112 0
0.283618 0.023495 0
0.355041 0.065813 0
0.411371 0.100522 0
0.455458 0.127546 0
0.489093 0.146154 0
0.513906 0.156441 0
0.531544 0.158978 0
0.543859 0.154460 0
0.553019 0.143524 0
0.561385 0.126747 0
0.571240 0.104802 0
0.584386 0.078643 0
0.601876 0.049648 0
0.623423 0.019691 0
0.646709 -0.008452 0
0.669470 -0.032064 0
0.690261 -0.049943 0
0.708432 -0.062038 0
0.723771 -0.068843 0
0.736292 -0.071158 0
0.746133 -0.069938 0
0.753509 -0.066173 0
0.758691 -0.060779 0
0.761990 -0.054531 0
0.763734 -0.048027 0
0.764248 -0.041687 0
0.763824 -0.035777 0
0.762711 -0.030443 0