# vtk DataFile Version 2.0
generated by CFD-lab course output (written by Tobias Neckel) 
ASCII

DATASET STRUCTURED_GRID
DIMENSIONS  101 21 1 
POINTS 2121 float

0.000000 0.000000 0
0.100000 0.000000 0
0.200000 0.000000 0
0.300000 0.000000 0
0.400000 0.000000 0
0.500000 0.000000 0
0.600000 0.000000 0
0.700000 0.000000 0
0.800000 0.000000 0
0.900000 0.000000 0
1.000000 0.000000 0
1.100000 0.000000 0
1.200000 0.000000 0
1.300000 0.000000 0
1.400000 0.000000 0
1.500000 0.000000 0
1.600000 0.000000 0
1.700000 0.000000 0
1.800000 0.000000 0
1.900000 0.000000 0
2.000000 0.000000 0
2.100000 0.000000 0
2.200000 0.000000 0
2.300000 0.000000 0
2.400000 0.000000 0
2.500000 0.000000 0
2.600000 0.000000 0
2.700000 0.000000 0
2.800000 0.000000 0
2.900000 0.000000 0
3.000000 0.000000 0
3.100000 0.000000 0
3.200000 0.000000 0
3.300000 0.000000 0
3.400000 0.000000 0
3.500000 0.000000 0
3.600000 0.000000 0
3.700000 0.000000 0
3.800000 0.000000 0
3.900000 0.000000 0
4.000000 0.000000 0
4.100000 0.000000 0
4.200000 0.000000 0
4.300000 0.000000 0
4.400000 0.000000 0
4.500000 0.000000 0
4.600000 0.000000 0
4.700000 0.000000 0
4.800000 0.000000 0
4.900000 0.000000 0
5.000000 0.000000 0
5.100000 0.000000 0
5.200000 0.000000 0
5.300000 0.000000 0
5.400000 0.000000 0
5.500000 0.000000 0
5.600000 0.000000 0
5.700000 0.000000 0
5.800000 0.000000 0
5.900000 0.000000 0
6.000000 0.000000 0
6.100000 0.000000 0
6.200000 0.000000 0
6.300000 0.000000 0
6.400000 0.000000 0
6.500000 0.000000 0
6.600000 0.000000 0
6.700000 0.000000 0
6.800000 0.000000 0
6.900000 0.000000 0
7.000000 0.000000 0
7.100000 0.000000 0
7.200000 0.000000 0
7.300000 0.000000 0
7.400000 0.000000 0
7.500000 0.000000 0
7.600000 0.000000 0
7.700000 0.000000 0
7.800000 0.000000 0
7.900000 0.000000 0
8.000000 0.000000 0
8.100000 0.000000 0
8.200000 0.000000 0
8.300000 0.000000 0
8.400000 0.000000 0
8.500000 0.000000 0
8.600000 0.000000 0
8.700000 0.000000 0
8.800000 0.000000 0
8.900000 0.000000 0
9.000000 0.000000 0
9.100000 0.000000 0
9.200000 0.000000 0
9.300000 0.000000 0
9.400000 0.000000 0
9.500000 0.000000 0
9.600000 0.000000 0
9.700000 0.000000 0
9.800000 0.000000 0
9.900000 0.000000 0
10.000000 0.000000 0
0.000000 0.100000 0
0.100000 0.100000 0
0.200000 0.100000 0
0.300000 0.100000 0
0.400000 0.100000 0
0.500000 0.100000 0
0.600000 0.100000 0
0.700000 0.100000 0
0.800000 0.100000 0
0.900000 0.100000 0
1.000000 0.100000 0
1.100000 0.100000 0
1.200000 0.100000 0
1.300000 0.100000 0
1.400000 0.100000 0
1.500000 0.100000 0
1.600000 0.100000 0
1.700000 0.100000 0
1.800000 0.100000 0
1.900000 0.100000 0
2.000000 0.100000 0
2.100000 0.100000 0
2.200000 0.100000 0
2.300000 0.100000 0
2.400000 0.100000 0
2.500000 0.100000 0
2.600000 0.100000 0
2.700000 0.100000 0
2.800000 0.100000 0
2.900000 0.100000 0
3.000000 0.100000 0
3.100000 0.100000 0
3.200000 0.100000 0
3.300000 0.100000 0
3.400000 0.100000 0
3.500000 0.100000 0
3.600000 0.100000 0
3.700000 0.100000 0
3.800000 0.100000 0
3.900000 0.100000 0
4.000000 0.100000 0
4.100000 0.100000 0
4.200000 0.100000 0
4.300000 0.100000 0
4.400000 0.100000 0
4.500000 0.100000 0
4.600000 0.100000 0
4.700000 0.100000 0
4.800000 0.100000 0
4.900000 0.100000 0
5.000000 0.100000 0
5.100000 0.100000 0
5.200000 0.100000 0
5.300000 0.100000 0
5.400000 0.100000 0
5.500000 0.100000 0
5.600000 0.100000 0
5.700000 0.100000 0
5.800000 0.100000 0
5.900000 0.100000 0
6.000000 0.100000 0
6.100000 0.100000 0
6.200000 0.100000 0
6.300000 0.100000 0
6.400000 0.100000 0
6.500000 0.100000 0
6.600000 0.100000 0
6.700000 0.100000 0
6.800000 0.100000 0
6.900000 0.100000 0
7.000000 0.100000 0
7.100000 0.100000 0
7.200000 0.100000 0
7.300000 0.100000 0
7.400000 0.100000 0
7.500000 0.100000 0
7.600000 0.100000 0
7.700000 0.100000 0
7.800000 0.100000 0
7.900000 0.100000 0
8.000000 0.100000 0
8.100000 0.100000 0
8.200000 0.100000 0
8.300000 0.100000 0
8.400000 0.100000 0
8.500000 0.100000 0
8.600000 0.100000 0
8.700000 0.100000 0
8.800000 0.100000 0
8.900000 0.100000 0
9.000000 0.100000 0
9.100000 0.100000 0
9.200000 0.100000 0
9.300000 0.100000 0
9.400000 0.100000 0
9.500000 0.100000 0
9.600000 0.100000 0
9.700000 0.100000 0
9.800000 0.100000 0
9.900000 0.100000 0
10.000000 0.100000 0
0.000000 0.200000 0
0.100000 0.200000 0
0.200000 0.200000 0
0.300000 0.200000 0
0.400000 0.200000 0
0.500000 0.200000 0
0.600000 0.200000 0
0.700000 0.200000 0
0.800000 0.200000 0
0.900000 0.200000 0
1.000000 0.200000 0
1.100000 0.200000 0
1.200000 0.200000 0
1.300000 0.200000 0
1.400000 0.200000 0
1.500000 0.200000 0
1.600000 0.200000 0
1.700000 0.200000 0
1.800000 0.200000 0
1.900000 0.200000 0
2.000000 0.200000 0
2.100000 0.200000 0
2.200000 0.200000 0
2.300000 0.200000 0
2.400000 0.200000 0
2.500000 0.200000 0
2.600000 0.200000 0
2.700000 0.200000 0
2.800000 0.200000 0
2.900000 0.200000 0
3.000000 0.200000 0
3.100000 0.200000 0
3.200000 0.200000 0
3.300000 0.200000 0
3.400000 0.200000 0
3.500000 0.200000 0
3.600000 0.200000 0
3.700000 0.200000 0
3.800000 0.200000 0
3.900000 0.200000 0
4.000000 0.200000 0
4.100000 0.200000 0
4.200000 0.200000 0
4.300000 0.200000 0
4.400000 0.200000 0
4.500000 0.200000 0
4.600000 0.200000 0
4.700000 0.200000 0
4.800000 0.200000 0
4.900000 0.200000 0
5.000000 0.200000 0
5.100000 0.200000 0
5.200000 0.200000 0
5.300000 0.200000 0
5.400000 0.200000 0
5.500000 0.200000 0
5.600000 0.200000 0
5.700000 0.200000 0
5.800000 0.200000 0
5.900000 0.200000 0
6.000000 0.200000 0
6.100000 0.200000 0
6.200000 0.200000 0
6.300000 0.200000 0
6.400000 0.200000 0
6.500000 0.200000 0
6.600000 0.200000 0
6.700000 0.200000 0
6.800000 0.200000 0
6.900000 0.200000 0
7.000000 0.200000 0
7.100000 0.200000 0
7.200000 0.200000 0
7.300000 0.200000 0
7.400000 0.200000 0
7.500000 0.200000 0
7.600000 0.200000 0
7.700000 0.200000 0
7.800000 0.200000 0
7.900000 0.200000 0
8.000000 0.200000 0
8.100000 0.200000 0
8.200000 0.200000 0
8.300000 0.200000 0
8.400000 0.200000 0
8.500000 0.200000 0
8.600000 0.200000 0
8.700000 0.200000 0
8.800000 0.200000 0
8.900000 0.200000 0
9.000000 0.200000 0
9.100000 0.200000 0
9.200000 0.200000 0
9.300000 0.200000 0
9.400000 0.200000 0
9.500000 0.200000 0
9.600000 0.200000 0
9.700000 0.200000 0
9.800000 0.200000 0
9.900000 0.200000 0
10.000000 0.200000 0
0.000000 0.300000 0
0.100000 0.300000 0
0.200000 0.300000 0
0.300000 0.300000 0
0.400000 0.300000 0
0.500000 0.300000 0
0.600000 0.300000 0
0.700000 0.300000 0
0.800000 0.300000 0
0.900000 0.300000 0
1.000000 0.300000 0
1.100000 0.300000 0
1.200000 0.300000 0
1.300000 0.300000 0
1.400000 0.300000 0
1.500000 0.300000 0
1.600000 0.300000 0
1.700000 0.300000 0
1.800000 0.300000 0
1.900000 0.300000 0
2.000000 0.300000 0
2.100000 0.300000 0
2.200000 0.300000 0
2.300000 0.300000 0
2.400000 0.300000 0
2.500000 0.300000 0
2.600000 0.300000 0
2.700000 0.300000 0
2.800000 0.300000 0
2.900000 0.300000 0
3.000000 0.300000 0
3.100000 0.300000 0
3.200000 0.300000 0
3.300000 0.300000 0
3.400000 0.300000 0
3.500000 0.300000 0
3.600000 0.300000 0
3.700000 0.300000 0
3.800000 0.300000 0
3.900000 0.300000 0
4.000000 0.300000 0
4.100000 0.300000 0
4.200000 0.300000 0
4.300000 0.300000 0
4.400000 0.300000 0
4.500000 0.300000 0
4.600000 0.300000 0
4.700000 0.300000 0
4.800000 0.300000 0
4.900000 0.300000 0
5.000000 0.300000 0
5.100000 0.300000 0
5.200000 0.300000 0
5.300000 0.300000 0
5.400000 0.300000 0
5.500000 0.300000 0
5.600000 0.300000 0
5.700000 0.300000 0
5.800000 0.300000 0
5.900000 0.300000 0
6.000000 0.300000 0
6.100000 0.300000 0
6.200000 0.300000 0
6.300000 0.300000 0
6.400000 0.300000 0
6.500000 0.300000 0
6.600000 0.300000 0
6.700000 0.300000 0
6.800000 0.300000 0
6.900000 0.300000 0
7.000000 0.300000 0
7.100000 0.300000 0
7.200000 0.300000 0
7.300000 0.300000 0
7.400000 0.300000 0
7.500000 0.300000 0
7.600000 0.300000 0
7.700000 0.300000 0
7.800000 0.300000 0
7.900000 0.300000 0
8.000000 0.300000 0
8.100000 0.300000 0
8.200000 0.300000 0
8.300000 0.300000 0
8.400000 0.300000 0
8.500000 0.300000 0
8.600000 0.300000 0
8.700000 0.300000 0
8.800000 0.300000 0
8.900000 0.300000 0
9.000000 0.300000 0
9.100000 0.300000 0
9.200000 0.300000 0
9.300000 0.300000 0
9.400000 0.300000 0
9.500000 0.300000 0
9.600000 0.300000 0
9.700000 0.300000 0
9.800000 0.300000 0
9.900000 0.300000 0
10.000000 0.300000 0
0.000000 0.400000 0
0.100000 0.400000 0
0.200000 0.400000 0
0.300000 0.400000 0
0.400000 0.400000 0
0.500000 0.400000 0
0.600000 0.400000 0
0.700000 0.400000 0
0.800000 0.400000 0
0.900000 0.400000 0
1.000000 0.400000 0
1.100000 0.400000 0
1.200000 0.400000 0
1.300000 0.400000 0
1.400000 0.400000 0
1.500000 0.400000 0
1.600000 0.400000 0
1.700000 0.400000 0
1.800000 0.400000 0
1.900000 0.400000 0
2.000000 0.400000 0
2.100000 0.400000 0
2.200000 0.400000 0
2.300000 0.400000 0
2.400000 0.400000 0
2.500000 0.400000 0
2.600000 0.400000 0
2.700000 0.400000 0
2.800000 0.400000 0
2.900000 0.400000 0
3.000000 0.400000 0
3.100000 0.400000 0
3.200000 0.400000 0
3.300000 0.400000 0
3.400000 0.400000 0
3.500000 0.400000 0
3.600000 0.400000 0
3.700000 0.400000 0
3.800000 0.400000 0
3.900000 0.400000 0
4.000000 0.400000 0
4.100000 0.400000 0
4.200000 0.400000 0
4.300000 0.400000 0
4.400000 0.400000 0
4.500000 0.400000 0
4.600000 0.400000 0
4.700000 0.400000 0
4.800000 0.400000 0
4.900000 0.400000 0
5.000000 0.400000 0
5.100000 0.400000 0
5.200000 0.400000 0
5.300000 0.400000 0
5.400000 0.400000 0
5.500000 0.400000 0
5.600000 0.400000 0
5.700000 0.400000 0
5.800000 0.400000 0
5.900000 0.400000 0
6.000000 0.400000 0
6.100000 0.400000 0
6.200000 0.400000 0
6.300000 0.400000 0
6.400000 0.400000 0
6.500000 0.400000 0
6.600000 0.400000 0
6.700000 0.400000 0
6.800000 0.400000 0
6.900000 0.400000 0
7.000000 0.400000 0
7.100000 0.400000 0
7.200000 0.400000 0
7.300000 0.400000 0
7.400000 0.400000 0
7.500000 0.400000 0
7.600000 0.400000 0
7.700000 0.400000 0
7.800000 0.400000 0
7.900000 0.400000 0
8.000000 0.400000 0
8.100000 0.400000 0
8.200000 0.400000 0
8.300000 0.400000 0
8.400000 0.400000 0
8.500000 0.400000 0
8.600000 0.400000 0
[...]
POINT_DATA 2121 

VECTORS velocity float
0.500000 0.000000 0
0.000044 0.000000 0
0.000043 0.000000 0
0.000031 0.000000 0
0.000010 0.000000 0
-0.000020 0.000000 0
-0.000058 0.000000 0
-0.000106 0.000000 0
-0.000162 0.000000 0
-0.000224 0.000000 0
-0.000287 0.000000 0
-0.000342 0.000000 0
-0.000374 0.000000 0
-0.000366 0.000000 0
-0.000294 0.000000 0
-0.000142 0.000000 0
0.000094 0.000000 0
0.000396 0.000000 0
0.000728 0.000000 0
0.001049 0.000000 0
0.001316 0.000000 0
0.001492 0.000000 0
0.001550 0.000000 0
0.001480 0.000000 0
0.001284 0.000000 0
0.000980 0.000000 0
0.000595 0.000000 0
0.000176 0.000000 0
-0.000242 0.000000 0
-0.000658 0.000000 0
-0.001049 0.000000 0
-0.001365 0.000000 0
-0.001546 0.000000 0
-0.001558 0.000000 0
-0.001411 0.000000 0
-0.001155 0.000000 0
-0.000854 0.000000 0
-0.000559 0.000000 0
-0.000307 0.000000 0
-0.000115 0.000000 0
0.000011 0.000000 0
0.000071 0.000000 0
0.000074 0.000000 0
0.000029 0.000000 0
-0.000049 0.000000 0
-0.000144 0.000000 0
-0.000238 0.000000 0
-0.000318 0.000000 0
-0.000375 0.000000 0
-0.000405 0.000000 0
-0.000412 0.000000 0
-0.000404 0.000000 0
-0.000392 0.000000 0
-0.000378 0.000000 0
-0.000368 0.000000 0
-0.000364 0.000000 0
-0.000364 0.000000 0
-0.000366 0.000000 0
-0.000363 0.000000 0
-0.000345 0.000000 0
-0.000305 0.000000 0
-0.000234 0.000000 0
-0.000131 0.000000 0
-0.000002 0.000000 0
0.000140 0.000000 0
0.000270 0.000000 0
0.000360 0.000000 0
0.000379 0.000000 0
0.000299 0.000000 0
0.000102 0.000000 0
-0.000222 0.000000 0
-0.000668 0.000000 0
-0.001216 0.000000 0
-0.001834 0.000000 0
-0.002466 0.000000 0
-0.003034 0.000000 0
-0.003436 0.000000 0
-0.003550 0.000000 0
-0.003258 0.000000 0
-0.002494 0.000000 0
-0.001288 0.000000 0
0.000196 0.000000 0
0.001681 0.000000 0
0.002835 0.000000 0
0.003448 0.000000 0
0.003755 0.000000 0
0.003909 0.000000 0
0.003976 0.000000 0
0.003991 0.000000 0
0.003976 0.000000 0
0.003944 0.000000 0
0.003903 0.000000 0
0.003860 0.000000 0
0.003820 0.000000 0
0.003785 0.000000 0
0.003757 0.000000 0
0.003736 0.000000 0
0.003723 0.000000 0
0.003717 0.000000 0
0.003717 0.000000 0
0.003725 0.000000 0
1.000000 0.000020 0
0.993189 -0.009707 0
0.998267 -0.016988 0
1.009702 -0.023637 0
1.027690 -0.030153 0
1.052429 -0.036469 0
1.083782 -0.042124 0
1.120865 -0.046373 0
1.161759 -0.048417 0
1.203355 -0.047944 0
1.242803 -0.045419 0
1.278373 -0.041656 0
1.309373 -0.037350 0
1.335689 -0.032865 0
1.357346 -0.028263 0
1.374200 -0.023429 0
1.385849 -0.018260 0
1.391768 -0.012800 0
1.391610 -0.007270 0
1.385446 -0.001987 0
1.373780 0.002675 0
1.357514 0.006342 0
1.337871 0.008749 0
1.316263 0.009779 0
1.294154 0.009452 0
1.272929 0.007913 0
1.253808 0.005422 0
1.237792 0.002352 0
1.225659 -0.000993 0
1.217907 -0.004458 0
1.214675 -0.007850 0
1.215556 -0.010814 0
1.219483 -0.012917 0
1.224824 -0.013847 0
1.229770 -0.013580 0
1.232812 -0.012385 0
1.233055 -0.010681 0
1.230200 -0.008861 0
1.224339 -0.007227 0
1.215750 -0.005955 0
1.204817 -0.005126 0
1.191964 -0.004756 0
1.177633 -0.004810 0
1.162273 -0.005219 0
1.146344 -0.005885 0
1.130335 -0.006691 0
1.114771 -0.007520 0
1.100223 -0.008269 0
1.087260 -0.008872 0
1.076373 -0.009300 0
1.067857 -0.009563 0
1.061726 -0.009712 0
1.057720 -0.009799 0
1.055417 -0.009857 0
1.054398 -0.009908 0
1.054332 -0.009965 0
1.054979 -0.010032 0
1.056182 -0.010104 0
1.057841 -0.010161 0
1.059882 -0.010176 0
1.062231 -0.010113 0
1.064799 -0.009944 0
1.067480 -0.009653 0
1.070164 -0.009253 0
1.072751 -0.008788 0
1.075168 -0.008337 0
1.077390 -0.008004 0
1.079443 -0.007904 0
1.081406 -0.008141 0
1.083405 -0.008794 0
1.085597 -0.009903 0
1.088148 -0.011457 0
1.091212 -0.013396 0
1.094904 -0.015599 0
1.099276 -0.017883 0
1.104289 -0.019986 0
1.109783 -0.021562 0
1.115463 -0.022206 0
1.120896 -0.021519 0
1.125551 -0.019245 0
1.128879 -0.015429 0
1.130432 -0.010538 0
1.129994 -0.005436 0
1.127636 -0.001220 0
1.123661 0.001387 0
1.118507 0.002644 0
1.112627 0.003195 0
1.106352 0.003380 0
1.099901 0.003360 0
1.093414 0.003226 0
1.086978 0.003032 0
1.080642 0.002817 0
1.074430 0.002605 0
1.068349 0.002413 0
1.062395 0.002254 0
1.056557 0.002135 0
1.050822 0.002068 0
1.045175 0.002080 0
1.039611 0.002343 0
1.034065 0.001295 0
1.029115 -0.000014 0
1.000000 0.000011 0
0.993936 -0.013106 0
0.998138 -0.025869 0
1.008106 -0.038778 0
1.024682 -0.052082 0
1.048664 -0.065447 0
1.080524 -0.077792 0
1.119778 -0.087333 0
1.164466 -0.091845 0
1.209410 -0.090399 0
1.250479 -0.084374 0
1.285989 -0.075925 0
1.315861 -0.066671 0
1.340627 -0.057328 0
1.360753 -0.047866 0
1.376238 -0.037858 0
1.386482 -0.026923 0
1.390527 -0.015116 0
1.387659 -0.003033 0
1.377818 0.008475 0
1.361535 0.018577 0
1.339867 0.026553 0
1.314252 0.031896 0
1.286357 0.034362 0
1.257915 0.033979 0
1.230576 0.030990 0
1.205803 0.025782 0
1.184837 0.018794 0
1.168722 0.010530 0
1.158175 0.001629 0
1.153501 -0.007004 0
1.154245 -0.014163 0
1.158872 -0.018624 0
1.164911 -0.019642 0
1.169630 -0.017343 0
1.170884 -0.012640 0
1.167632 -0.006743 0
1.159732 -0.000639 0
1.147379 0.005096 0
1.130933 0.010167 0
1.110809 0.014430 0
1.087449 0.017828 0
1.061332 0.020337 0
1.033006 0.021934 0
1.003123 0.022583 0
0.972460 0.022218 0
0.941925 0.020757 0
0.912530 0.018156 0
0.885289 0.014495 0
0.861084 0.010048 0
0.840513 0.005291 0
0.823798 0.000783 0
0.810795 -0.003045 0
0.801106 -0.006034 0
0.794190 -0.008271 0
0.789486 -0.009935 0
0.786537 -0.011205 0
0.785013 -0.012218 0
0.784680 -0.013056 0
0.785357 -0.013745 0
0.786887 -0.014272 0
0.789112 -0.014604 0
0.791875 -0.014721 0
0.795019 -0.014626 0
0.798396 -0.014359 0
0.801869 -0.013995 0
0.805306 -0.013629 0
0.808582 -0.013371 0
0.811572 -0.013318 0
0.814154 -0.013547 0
0.816209 -0.014098 0
0.817623 -0.014969 0
0.818295 -0.016110 0
0.818137 -0.017419 0
0.817087 -0.018740 0
0.815124 -0.019862 0
0.812292 -0.020530 0
0.808734 -0.020468 0
0.804725 -0.019443 0
0.800673 -0.017337 0
0.797058 -0.014236 0
0.794319 -0.010471 0
0.792685 -0.006559 0
0.792037 -0.003021 0
0.791826 -0.000226 0
0.791443 0.001678 0
0.790713 0.002800 0
0.789653 0.003371 0
0.788331 0.003583 0
0.786812 0.003568 0
0.785152 0.003417 0
0.783395 0.003193 0
0.781578 0.002938 0
0.779729 0.002680 0
0.777872 0.002437 0
0.776030 0.002218 0
0.774225 0.002027 0
0.772490 0.001856 0
0.770886 0.001755 0
0.769647 0.001141 0
0.767442 0.000508 0
1.000000 0.000008 0
0.994385 -0.017200 0
0.998569 -0.035029 0
1.008099 -0.054052 0
1.024318 -0.074582 0
1.048874 -0.096182 0
1.083416 -0.117109 0
1.128560 -0.134187 0
1.183382 -0.141920 0
1.236247 -0.137828 0
1.280683 -0.125869 0
1.316176 -0.110910 0
1.344422 -0.095859 0
1.367373 -0.081628 0
1.386443 -0.067745 0
1.402060 -0.053030 0
1.413411 -0.036420 0
1.418702 -0.017848 0
1.416316 0.001567 0
1.405801 0.020265 0
1.387630 0.036756 0
1.363080 0.049755 0
1.333957 0.058388 0
1.302350 0.062245 0
1.270401 0.061362 0
1.240109 0.056154 0
1.213159 0.047290 0
1.190835 0.035562 0
1.174026 0.021798 0
1.163360 0.006892 0
1.159330 -0.007790 0
1.161936 -0.020057 0
1.169700 -0.027454 0
1.179586 -0.028476 0
1.187908 -0.023424 0
1.191668 -0.014259 0
1.189580 -0.003399 0
1.181864 0.007520 0
1.169149 0.017702 0
1.152137 0.026744 0
1.131447 0.034486 0
1.107631 0.040850 0
1.081236 0.045762 0
1.052863 0.049119 0
1.023199 0.050791 0
0.993003 0.050635 0
0.963070 0.048539 0
0.934172 0.044496 0
0.906982 0.038703 0
0.882033 0.031605 0
0.859688 0.023852 0
0.840173 0.016135 0
0.823599 0.009023 0
0.809959 0.002877 0
0.799127 -0.002159 0
0.790897 -0.006182 0
0.785031 -0.009430 0
0.781274 -0.012118 0
0.779369 -0.014377 0
0.779050 -0.016254 0
0.780031 -0.017739 0
0.782013 -0.018803 0
0.784703 -0.019432 0
0.787829 -0.019646 0
0.791153 -0.019509 0
0.794481 -0.019118 0
0.797652 -0.018588 0
0.800534 -0.018041 0
0.803018 -0.017585 0
0.805008 -0.017303 0
0.806417 -0.017243 0
0.807172 -0.017414 0
0.807210 -0.017780 0
0.806490 -0.018263 0
0.804992 -0.018742 0
0.802739 -0.019061 0
0.799811 -0.019043 0
0.796361 -0.018511 0
0.792626 -0.017329 0
0.788914 -0.015449 0
0.785556 -0.012946 0
0.782833 -0.010035 0
0.780881 -0.007025 0
0.779653 -0.004232 0
0.778963 -0.001891 0
0.778548 -0.000113 0
0.778159 0.001114 0
0.777655 0.001890 0
0.776978 0.002330 0
0.776113 0.002534 0
0.775068 0.002578 0
0.773862 0.002520 0
0.772519 0.002400 0
0.771063 0.002248 0
0.769520 0.002082 0
0.767914 0.001911 0
0.766271 0.001737 0
0.764616 0.001548 0
0.762975 0.001314 0
0.761444 0.000867 0
0.759510 0.000521 0
1.000000 0.000007 0
0.994129 -0.021030 0
0.997261 -0.043453 0
1.005011 -0.068399 0
1.019233 -0.096728 0
1.042721 -0.128415 0
1.079217 -0.161350 0
1.132067 -0.191170 0
1.205679 -0.203402 0
1.268152 -0.191571 0
1.311676 -0.168174 0
1.341107 -0.143536 0
1.361869 -0.121740 0
1.378012 -0.103220 0
1.392318 -0.086424 0
1.406088 -0.068697 0
1.418540 -0.047436 0
1.426573 -0.021893 0
1.426284 0.005997 0
1.416151 0.033290 0
1.396657 0.057427 0
1.369458 0.076355 0
1.336840 0.088755 0
1.301363 0.094047 0
1.265613 0.092348 0
1.231935 0.084361 0
1.202184 0.071185 0
1.177606 0.054056 0
1.158962 0.034134 0
1.146713 0.012454 0
1.141172 -0.009452 0
1.143115 -0.028404 0
1.152013 -0.040145 0
1.165112 -0.041721 0
1.178216 -0.033296 0
1.186874 -0.018184 0
1.188058 -0.000810 0
1.181789 0.015921 0
1.169652 0.030952 0
1.153002 0.043998 0
1.132785 0.055065 0
1.109664 0.064169 0
1.084200 0.071234 0
1.056973 0.076100 0
1.028629 0.078572 0
0.999860 0.078475 0
0.971359 0.075717 0
0.943755 0.070373 0
0.917562 0.062763 0
0.893158 0.053471 0
0.870794 0.043279 0
0.850624 0.033000 0
0.832740 0.023298 0
0.817215 0.014567 0
0.804153 0.006920 0
0.793685 0.000290 0
0.785878 -0.005453 0
0.780689 -0.010427 0
0.777935 -0.014703 0
0.777305 -0.018278 0
0.778398 -0.021106 0
0.780761 -0.023148 0
0.783955 -0.024407 0
0.787589 -0.024947 0
0.791342 -0.024883 0
0.794971 -0.024364 0
0.798298 -0.023554 0
0.801198 -0.022609 0
0.803584 -0.021662 0
0.805395 -0.020816 0
0.806586 -0.020133 0
0.807125 -0.019634 0
0.806993 -0.019299 0
0.806186 -0.019072 0
0.804723 -0.018861 0
0.802650 -0.018553 0
0.800056 -0.018023 0
0.797076 -0.017155 0
0.793892 -0.015867 0
0.790721 -0.014138 0
0.787784 -0.012026 0
0.785256 -0.009667 0
0.783232 -0.007251 0
0.781696 -0.004974 0
0.780550 -0.002992 0
0.779648 -0.001389 0
0.778839 -0.000179 0
0.778012 0.000681 0
0.777100 0.001254 0
0.776074 0.001606 0
0.774922 0.001797 0
0.773650 0.001871 0
0.772269 0.001866 0
0.770795 0.001808 0
0.769243 0.001715 0
0.767633 0.001596 0
0.765980 0.001454 0
0.764298 0.001280 0
0.762593 0.001056 0
0.760856 0.000735 0
0.758935 0.000513 0
1.000000 0.000006 0
0.993425 -0.023816 0
0.994345 -0.049782 0
0.998358 -0.079895 0
1.007634 -0.116164 0
1.026115 -0.160038 0
1.060565 -0.210326 0
1.120247 -0.264520 0
1.226794 -0.281875 0
1.291644 -0.247696 0
1.318860 -0.202695 0
1.328839 -0.164974 0
1.331513 -0.136635 0
1.332121 -0.115949 0
1.334467 -0.099691 0
1.341306 -0.083123 0
1.353081 -0.060776 0
1.366042 -0.029463 0
1.372022 0.008118 0
1.365803 0.046021 0
1.348060 0.079577 0
1.320940 0.105700 0
1.287185 0.122612 0
1.249748 0.129601 0
1.211638 0.126920 0
1.175585 0.115712 0
1.143537 0.097748 0
1.116395 0.074912 0
1.094411 0.048820 0
1.077610 0.020812 0
1.065437 -0.008064 0
1.058082 -0.034770 0
1.058566 -0.053323 0
1.067395 -0.058549 0
1.082750 -0.049057 0
1.100051 -0.027972 0
1.112806 -0.002184 0
1.116162 0.022055 0
1.111547 0.042617 0
1.101579 0.059739 0
1.087650 0.073953 0
1.070535 0.085565 0
1.050787 0.094582 0
1.028946 0.100818 0
1.005607 0.104032 0
0.981407 0.104034 0
0.956971 0.100773 0
0.932841 0.094422 0
0.909442 0.085428 0
0.887067 0.074502 0
0.865919 0.062515 0
0.846179 0.050318 0
0.828076 0.038560 0
0.811924 0.027592 0
0.798102 0.017500 0
0.786973 0.008222 0
0.778807 -0.000306 0
0.773702 -0.008046 0
0.771530 -0.014864 0
0.771896 -0.020588 0
0.774227 -0.025066 0
0.777890 -0.028232 0
0.782298 -0.030130 0
0.786962 -0.030904 0
0.791515 -0.030763 0
0.795702 -0.029945 0
0.799360 -0.028686 0
0.802398 -0.027199 0
0.804772 -0.025653 0
0.806468 -0.024175 0
0.807490 -0.022844 0
0.807849 -0.021692 0
0.807568 -0.020713 0
0.806677 -0.019864 0
0.805222 -0.019077 0
0.803264 -0.018266 0
0.800892 -0.017340 0
0.798223 -0.016218 0
0.795397 -0.014846 0
0.792572 -0.013211 0
0.789897 -0.011352 0
0.787491 -0.009354 0
0.785421 -0.007336 0
0.783688 -0.005422 0
0.782240 -0.003713 0
0.780991 -0.002273 0
0.779848 -0.001121 0
0.778731 -0.000243 0
0.777585 0.000397 0
0.776377 0.000841 0
0.775091 0.001130 0
0.773721 0.001301 0
0.772271 0.001385 0
0.770748 0.001403 0
0.769162 0.001372 0
0.767523 0.001304 0
0.765841 0.001202 0
0.764121 0.001064 0
0.762362 0.000885 0
0.760548 0.000654 0
0.758631 0.000499 0
1.000000 0.000006 0
0.992336 -0.024731 0
0.989835 -0.052258 0
0.987734 -0.085559 0
0.987803 -0.128356 0
0.994102 -0.185217 0
1.015818 -0.259353 0
1.071675 -0.361270 0
1.223322 -0.378670 0
1.260968 -0.287508 0
1.240253 -0.209239 0
1.213345 -0.160061 0
1.186978 -0.128893 0
1.162852 -0.110045 0
1.144045 -0.099481 0
1.135353 -0.091181 0
1.141000 -0.076043 0
1.159998 -0.044706 0
1.181138 0.002365 0
1.188113 0.053382 0
1.181037 0.098418 0
1.162660 0.133359 0
1.135501 0.156076 0
1.102427 0.165723 0
1.066798 0.162640 0
1.031849 0.148592 0
0.999163 0.126504 0
0.967455 0.099310 0
0.934170 0.069049 0
0.898962 0.037557 0
0.864771 0.006205 0
0.835383 -0.025405 0
0.816663 -0.053329 0
0.815593 -0.069777 0
0.832456 -0.069822 0
0.862944 -0.052111 0
0.899689 -0.020792 0
0.933285 0.013310 0
0.956309 0.041664 0
0.968868 0.064023 0
0.974125 0.082237 0
0.973617 0.097161 0
0.968287 0.108952 0
0.958935 0.117409 0
0.946359 0.122240 0
0.931348 0.123240 0
0.914627 0.120412 0
0.896797 0.114031 0
0.878321 0.104666 0
0.859552 0.093123 0
0.840824 0.080297 0
0.822559 0.066973 0
0.805345 0.053681 0
0.789915 0.040669 0
0.777038 0.028000 0
0.767360 0.015714 0
0.761264 0.003947 0
0.758787 -0.007021 0
0.759575 -0.016767 0
0.762931 -0.024845 0
0.768024 -0.030971 0
0.774065 -0.035090 0
0.780401 -0.037351 0
0.786541 -0.038036 0
0.792152 -0.037493 0
0.797034 -0.036080 0
0.801089 -0.034121 0
0.804288 -0.031892 0
0.806652 -0.029604 0
0.808223 -0.027405 0
0.809057 -0.025385 0
0.809214 -0.023584 0
0.808753 -0.021999 0
0.807734 -0.020596 0
0.806223 -0.019318 0
0.804292 -0.018094 0
0.802027 -0.016853 0
0.799527 -0.015531 0
0.796905 -0.014087 0
0.794274 -0.012509 0
0.791743 -0.010816 0
0.789394 -0.009062 0
0.787276 -0.007319 0
0.785399 -0.005665 0
0.783734 -0.004166 0
0.782233 -0.002868 0
0.780834 -0.001790 0
0.779482 -0.000928 0
0.778136 -0.000264 0
0.776763 0.000230 0
0.775345 0.000582 0
0.773874 0.000820 0
0.772347 0.000968 0
0.770766 0.001046 0
0.769135 0.001068 0
0.767458 0.001046 0
0.765741 0.000985 0
0.763986 0.000888 0
0.762188 0.000758 0
0.760340 0.000595 0
0.758423 0.000484 0
1.000000 0.000006 0
0.990999 -0.023007 0
0.984213 -0.049051 0
0.974004 -0.081734 0
0.960457 -0.126403 0
0.944916 -0.191924 0
0.933295 -0.291771 0
0.946577 -0.475895 0
1.093653 -0.475039 0
1.068059 -0.268498 0
0.956745 -0.158943 0
0.889081 -0.115570 0
0.835839 -0.090013 0
0.788068 -0.076887 0
0.747155 -0.076063 0
0.723147 -0.083949 0
0.725562 -0.089292 0
0.755579 -0.073472 0
0.801724 -0.023868 0
0.841562 0.042251 0
0.861890 0.101159 0
0.866329 0.147365 0
0.855623 0.178973 0
0.830699 0.194433 0
0.792665 0.193627 0
0.742661 0.179477 0
0.682925 0.158271 0
0.618398 0.136033 0
0.556710 0.113441 0
0.505632 0.086340 0
0.471650 0.051645 0
0.458135 0.009467 0
0.462478 -0.037404 0
0.482050 -0.078214 0
0.515569 -0.100280 0
0.561784 -0.099076 0
0.618489 -0.076396 0
0.680674 -0.038436 0
0.738578 0.003162 0
0.784306 0.038052 0
0.816278 0.065334 0
0.837902 0.087532 0
0.851412 0.105393 0
0.858178 0.118876 0
0.859350 0.127748 0
0.855950 0.131894 0
0.848852 0.131452 0
0.838771 0.126856 0
0.826299 0.118802 0
0.812015 0.108129 0
0.796616 0.095637 0
0.781029 0.081926 0
0.766401 0.067334 0
0.753968 0.052029 0
0.744825 0.036183 0
0.739712 0.020124 0
0.738876 0.004396 0
0.741922 -0.010228 0
0.747861 -0.022879 0
0.755587 -0.032908 0
0.764134 -0.040072 0
0.772758 -0.044480 0
0.780929 -0.046476 0
0.788302 -0.046526 0
0.794678 -0.045127 0
0.799967 -0.042753 0
0.804161 -0.039812 0
0.807310 -0.036632 0
0.809492 -0.033458 0
0.810806 -0.030452 0
0.811350 -0.027706 0
0.811221 -0.025259 0
0.810507 -0.023104 0
0.809290 -0.021205 0
0.807646 -0.019506 0
0.805655 -0.017941 0
0.803396 -0.016446 0
0.800955 -0.014967 0
0.798420 -0.013464 0
0.795878 -0.011920 0
0.793406 -0.010342 0
0.791065 -0.008759 0
0.788892 -0.007213 0
0.786897 -0.005751 0
0.785067 -0.004418 0
0.783371 -0.003243 0
0.781772 -0.002242 0
0.780230 -0.001416 0
0.778712 -0.000754 0
0.777192 -0.000240 0
0.775653 0.000147 0
0.774084 0.000428 0
0.772478 0.000622 0
0.770834 0.000744 0
0.769152 0.000809 0
0.767434 0.000826 0
0.765680 0.000803 0
0.763892 0.000746 0
0.762065 0.000660 0
0.760196 0.000548 0
0.758277 0.000469 0
1.000000 0.000005 0
0.989710 -0.018299 0
0.978730 -0.039134 0
0.960233 -0.065674 0
0.931588 -0.103139 0
0.888059 -0.161926 0
0.820969 -0.264885 0
0.715066 -0.525499 0
0.531094 -0.504023 0
0.000336 -0.154470 0
0.372392 -0.034133 0
0.291682 -0.043026 0
0.270299 -0.031751 0
0.259826 -0.025233 0
0.242678 -0.038430 0
0.232696 -0.073459 0
0.245108 -0.112347 0
0.285072 -0.124739 0
0.346175 -0.087488 0
0.413703 -0.010655 0
0.463998 0.069780 0
0.491538 0.135754 0
0.495376 0.187834 0
0.474571 0.224810 0
0.429680 0.246808 0
0.364312 0.254460 0
0.288308 0.246896 0
0.218422 0.221654 0
0.169915 0.177943 0
0.150783 0.118747 0
0.160706 0.049831 0
0.191936 -0.020104 0
0.233087 -0.081115 0
0.275315 -0.126739 0
0.318079 -0.153427 0
0.364461 -0.158901 0
0.417447 -0.143553 0
0.477957 -0.110650 0
0.543762 -0.065840 0
0.606966 -0.017548 0
0.659714 0.024770 0
0.699367 0.058156 0
0.728254 0.084804 0
0.748536 0.105599 0
0.761583 0.120597 0
0.768480 0.129867 0
0.770114 0.133720 0
0.767269 0.132713 0
0.760753 0.127551 0
0.751547 0.118935 0
0.740920 0.107411 0
0.730409 0.093317 0
0.721658 0.076871 0
0.716129 0.058374 0
0.714821 0.038386 0
0.718085 0.017792 0
0.725416 -0.002135 0
0.735397 -0.019877 0
0.746594 -0.034303 0
0.757947 -0.044989 0
0.768770 -0.052013 0
0.778650 -0.055756 0
0.787359 -0.056766 0
0.794791 -0.055656 0
0.800920 -0.053029 0
0.805781 -0.049434 0
0.809452 -0.045335 0
0.812035 -0.041094 0
0.813649 -0.036971 0
0.814418 -0.033134 0
0.814462 -0.029671 0
0.813891 -0.026612 0
0.812805 -0.023938 0
0.811290 -0.021607 0
0.809427 -0.019555 0
0.807290 -0.017716 0
0.804950 -0.016025 0
0.802478 -0.014427 0
0.799944 -0.012881 0
0.797412 -0.011365 0
0.794938 -0.009874 0
0.792568 -0.008419 0
0.790329 -0.007022 0
0.788230 -0.005711 0
0.786264 -0.004511 0
0.784414 -0.003444 0
0.782653 -0.002519 0
0.780953 -0.001739 0
0.779290 -0.001098 0
0.777642 -0.000583 0
0.775992 -0.000181 0
0.774330 0.000124 0
0.772647 0.000347 0
0.770940 0.000501 0
0.769206 0.000597 0
0.767445 0.000646 0
0.765655 0.000656 0
0.763835 0.000632 0
0.761984 0.000583 0
0.760099 0.000512 0
0.758176 0.000458 0
1.000000 0.000005 0
0.988854 -0.011092 0
0.975083 -0.023445 0
0.951053 -0.038463 0
0.912264 -0.058100 0
0.849727 -0.085176 0
0.744341 -0.122648 0
0.554090 -0.189891 0
0.072894 0.000336 0
-0.506959 0.118260 0
0.000000 -0.000025 0
-0.037895 -0.030623 0
-0.062778 -0.062029 0
-0.072585 -0.053137 0
-0.091872 -0.052804 0
-0.104707 -0.090250 0
-0.095731 -0.145539 0
-0.065305 -0.178411 0
-0.016246 -0.156371 0
0.048693 -0.079442 0
0.113573 0.019453 0
0.154408 0.112116 0
0.168540 0.192069 0
0.157081 0.256258 0
0.125185 0.300015 0
0.083265 0.316977 0
0.048269 0.300290 0
0.034851 0.250555 0
0.047553 0.177209 0
0.083326 0.091678 0
0.132112 0.006620 0
0.180144 -0.066785 0
0.221429 -0.124653 0
0.255338 -0.167077 0
0.283664 -0.193297 0
0.310416 -0.202315 0
0.340412 -0.193764 0
0.377530 -0.168622 0
0.423234 -0.129718 0
0.475994 -0.081771 0
0.530322 -0.030939 0
0.578405 0.015121 0
0.616514 0.052353 0
0.645418 0.081675 0
0.666565 0.103933 0
0.681024 0.119492 0
0.689675 0.128792 0
0.693443 0.132347 0
0.693484 0.130653 0
0.691284 0.124090 0
0.688621 0.112904 0
0.687355 0.097317 0
0.689111 0.077743 0
0.694941 0.054995 0
0.705099 0.030357 0
0.718797 0.005658 0
0.733990 -0.016787 0
0.748964 -0.035276 0
0.762775 -0.049301 0
0.775004 -0.058956 0