# vtk DataFile Version 2.0
generated by CFD-lab course output (written by Tobias Neckel) 
ASCII

DATASET STRUCTURED_GRID
DIMENSIONS  101 21 1 
POINTS 2121 float

0.000000 0.000000 0
0.100000 0.000000 0
0.200000 0.000000 0
0.300000 0.000000 0
0.400000 0.000000 0
0.500000 0.000000 0
0.600000 0.000000 0
0.700000 0.000000 0
0.800000 0.000000 0
0.900000 0.000000 0
1.000000 0.000000 0
1.100000 0.000000 0
1.200000 0.000000 0
1.300000 0.000000 0
1.400000 0.000000 0
1.500000 0.000000 0
1.600000 0.000000 0
1.700000 0.000000 0
1.800000 0.000000 0
1.900000 0.000000 0
2.000000 0.000000 0
2.100000 0.000000 0
2.200000 0.000000 0
2.300000 0.000000 0
2.400000 0.000000 0
2.500000 0.000000 0
2.600000 0.000000 0
2.700000 0.000000 0
2.800000 0.000000 0
2.900000 0.000000 0
3.000000 0.000000 0
3.100000 0.000000 0
3.200000 0.000000 0
3.300000 0.000000 0
3.400000 0.000000 0
3.500000 0.000000 0
3.600000 0.000000 0
3.700000 0.000000 0
3.800000 0.000000 0
3.900000 0.000000 0
4.000000 0.000000 0
4.100000 0.000000 0
4.200000 0.000000 0
4.300000 0.000000 0
4.400000 0.000000 0
4.500000 0.000000 0
4.600000 0.000000 0
4.700000 0.000000 0
4.800000 0.000000 0
4.900000 0.000000 0
5.000000 0.000000 0
5.100000 0.000000 0
5.200000 0.000000 0
5.300000 0.000000 0
5.400000 0.000000 0
5.500000 0.000000 0
5.600000 0.000000 0
5.700000 0.000000 0
5.800000 0.000000 0
5.900000 0.000000 0
6.000000 0.000000 0
6.100000 0.000000 0
6.200000 0.000000 0
6.300000 0.000000 0
6.400000 0.000000 0
6.500000 0.000000 0
6.600000 0.000000 0
6.700000 0.000000 0
6.800000 0.000000 0
6.900000 0.000000 0
7.000000 0.000000 0
7.100000 0.000000 0
7.200000 0.000000 0
7.300000 0.000000 0
7.400000 0.000000 0
7.500000 0.000000 0
7.600000 0.000000 0
7.700000 0.000000 0
7.800000 0.000000 0
7.900000 0.000000 0
8.000000 0.000000 0
8.100000 0.000000 0
8.200000 0.000000 0
8.300000 0.000000 0
8.400000 0.000000 0
8.500000 0.000000 0
8.600000 0.000000 0
8.700000 0.000000 0
8.800000 0.000000 0
8.900000 0.000000 0
9.000000 0.000000 0
9.100000 0.000000 0
9.200000 0.000000 0
9.300000 0.000000 0
9.400000 0.000000 0
9.500000 0.000000 0
9.600000 0.000000 0
9.700000 0.000000 0
9.800000 0.000000 0
9.900000 0.000000 0
10.000000 0.000000 0
0.000000 0.100000 0
0.100000 0.100000 0
0.200000 0.100000 0
0.300000 0.100000 0
0.400000 0.100000 0
0.500000 0.100000 0
0.600000 0.100000 0
0.700000 0.100000 0
0.800000 0.100000 0
0.900000 0.100000 0
1.000000 0.100000 0
1.100000 0.100000 0
1.200000 0.100000 0
1.300000 0.100000 0
1.400000 0.100000 0
1.500000 0.100000 0
1.600000 0.100000 0
1.700000 0.100000 0
1.800000 0.100000 0
1.900000 0.100000 0
2.000000 0.100000 0
2.100000 0.100000 0
2.200000 0.100000 0
2.300000 0.100000 0
2.400000 0.100000 0
2.500000 0.100000 0
2.600000 0.100000 0
2.700000 0.100000 0
2.800000 0.100000 0
2.900000 0.100000 0
3.000000 0.100000 0
3.100000 0.100000 0
3.200000 0.100000 0
3.300000 0.100000 0
3.400000 0.100000 0
3.500000 0.100000 0
3.600000 0.100000 0
3.700000 0.100000 0
3.800000 0.100000 0
3.900000 0.100000 0
4.000000 0.100000 0
4.100000 0.100000 0
4.200000 0.100000 0
4.300000 0.100000 0
4.400000 0.100000 0
4.500000 0.100000 0
4.600000 0.100000 0
4.700000 0.100000 0
4.800000 0.100000 0
4.900000 0.100000 0
5.000000 0.100000 0
5.100000 0.100000 0
5.200000 0.100000 0
5.300000 0.100000 0
5.400000 0.100000 0
5.500000 0.100000 0
5.600000 0.100000 0
5.700000 0.100000 0
5.800000 0.100000 0
5.900000 0.100000 0
6.000000 0.100000 0
6.100000 0.100000 0
6.200000 0.100000 0
6.300000 0.100000 0
6.400000 0.100000 0
6.500000 0.100000 0
6.600000 0.100000 0
6.700000 0.100000 0
6.800000 0.100000 0
6.900000 0.100000 0
7.000000 0.100000 0
7.100000 0.100000 0
7.200000 0.100000 0
7.300000 0.100000 0
7.400000 0.100000 0
7.500000 0.100000 0
7.600000 0.100000 0
7.700000 0.100000 0
7.800000 0.100000 0
7.900000 0.100000 0
8.000000 0.100000 0
8.100000 0.100000 0
8.200000 0.100000 0
8.300000 0.100000 0
8.400000 0.100000 0
8.500000 0.100000 0
8.600000 0.100000 0
8.700000 0.100000 0
8.800000 0.100000 0
8.900000 0.100000 0
9.000000 0.100000 0
9.100000 0.100000 0
9.200000 0.100000 0
9.300000 0.100000 0
9.400000 0.100000 0
9.500000 0.100000 0
9.600000 0.100000 0
9.700000 0.100000 0
9.800000 0.100000 0
9.900000 0.100000 0
10.000000 0.100000 0
0.000000 0.200000 0
0.100000 0.200000 0
0.200000 0.200000 0
0.300000 0.200000 0
0.400000 0.200000 0
0.500000 0.200000 0
0.600000 0.200000 0
0.700000 0.200000 0
0.800000 0.200000 0
0.900000 0.200000 0
1.000000 0.200000 0
1.100000 0.200000 0
1.200000 0.200000 0
1.300000 0.200000 0
1.400000 0.200000 0
1.500000 0.200000 0
1.600000 0.200000 0
1.700000 0.200000 0
1.800000 0.200000 0
1.900000 0.200000 0
2.000000 0.200000 0
2.100000 0.200000 0
2.200000 0.200000 0
2.300000 0.200000 0
2.400000 0.200000 0
2.500000 0.200000 0
2.600000 0.200000 0
2.700000 0.200000 0
2.800000 0.200000 0
2.900000 0.200000 0
3.000000 0.200000 0
3.100000 0.200000 0
3.200000 0.200000 0
3.300000 0.200000 0
3.400000 0.200000 0
3.500000 0.200000 0
3.600000 0.200000 0
3.700000 0.200000 0
3.800000 0.200000 0
3.900000 0.200000 0
4.000000 0.200000 0
4.100000 0.200000 0
4.200000 0.200000 0
4.300000 0.200000 0
4.400000 0.200000 0
4.500000 0.200000 0
4.600000 0.200000 0
4.700000 0.200000 0
4.800000 0.200000 0
4.900000 0.200000 0
5.000000 0.200000 0
5.100000 0.200000 0
5.200000 0.200000 0
5.300000 0.200000 0
5.400000 0.200000 0
5.500000 0.200000 0
5.600000 0.200000 0
5.700000 0.200000 0
5.800000 0.200000 0
5.900000 0.200000 0
6.000000 0.200000 0
6.100000 0.200000 0
6.200000 0.200000 0
6.300000 0.200000 0
6.400000 0.200000 0
6.500000 0.200000 0
6.600000 0.200000 0
6.700000 0.200000 0
6.800000 0.200000 0
6.900000 0.200000 0
7.000000 0.200000 0
7.100000 0.200000 0
7.200000 0.200000 0
7.300000 0.200000 0
7.400000 0.200000 0
7.500000 0.200000 0
7.600000 0.200000 0
7.700000 0.200000 0
7.800000 0.200000 0
7.900000 0.200000 0
8.000000 0.200000 0
8.100000 0.200000 0
8.200000 0.200000 0
8.300000 0.200000 0
8.400000 0.200000 0
8.500000 0.200000 0
8.600000 0.200000 0
8.700000 0.200000 0
8.800000 0.200000 0
8.900000 0.200000 0
9.000000 0.200000 0
9.100000 0.200000 0
9.200000 0.200000 0
9.300000 0.200000 0
9.400000 0.200000 0
9.500000 0.200000 0
9.600000 0.200000 0
9.700000 0.200000 0
9.800000 0.200000 0
9.900000 0.200000 0
10.000000 0.200000 0
0.000000 0.300000 0
0.100000 0.300000 0
0.200000 0.300000 0
0.300000 0.300000 0
0.400000 0.300000 0
0.500000 0.300000 0
0.600000 0.300000 0
0.700000 0.300000 0
0.800000 0.300000 0
0.900000 0.300000 0
1.000000 0.300000 0
1.100000 0.300000 0
1.200000 0.300000 0
1.300000 0.300000 0
1.400000 0.300000 0
1.500000 0.300000 0
1.600000 0.300000 0
1.700000 0.300000 0
1.800000 0.300000 0
1.900000 0.300000 0
2.000000 0.300000 0
2.100000 0.300000 0
2.200000 0.300000 0
2.300000 0.300000 0
2.400000 0.300000 0
2.500000 0.300000 0
2.600000 0.300000 0
2.700000 0.300000 0
2.800000 0.300000 0
2.900000 0.300000 0
3.000000 0.300000 0
3.100000 0.300000 0
3.200000 0.300000 0
3.300000 0.300000 0
3.400000 0.300000 0
3.500000 0.300000 0
3.600000 0.300000 0
3.700000 0.300000 0
3.800000 0.300000 0
3.900000 0.300000 0
4.000000 0.300000 0
4.100000 0.300000 0
4.200000 0.300000 0
4.300000 0.300000 0
4.400000 0.300000 0
4.500000 0.300000 0
4.600000 0.300000 0
4.700000 0.300000 0
4.800000 0.300000 0
4.900000 0.300000 0
5.000000 0.300000 0
5.100000 0.300000 0
5.200000 0.300000 0
5.300000 0.300000 0
5.400000 0.300000 0
5.500000 0.300000 0
5.600000 0.300000 0
5.700000 0.300000 0
5.800000 0.300000 0
5.900000 0.300000 0
6.000000 0.300000 0
6.100000 0.300000 0
6.200000 0.300000 0
6.300000 0.300000 0
6.400000 0.300000 0
6.500000 0.300000 0
6.600000 0.300000 0
6.700000 0.300000 0
6.800000 0.300000 0
6.900000 0.300000 0
7.000000 0.300000 0
7.100000 0.300000 0
7.200000 0.300000 0
7.300000 0.300000 0
7.400000 0.300000 0
7.500000 0.300000 0
7.600000 0.300000 0
7.700000 0.300000 0
7.800000 0.300000 0
7.900000 0.300000 0
8.000000 0.300000 0
8.100000 0.300000 0
8.200000 0.300000 0
8.300000 0.300000 0
8.400000 0.300000 0
8.500000 0.300000 0
8.600000 0.300000 0
8.700000 0.300000 0
8.800000 0.300000 0
8.900000 0.300000 0
9.000000 0.300000 0
9.100000 0.300000 0
9.200000 0.300000 0
9.300000 0.300000 0
9.400000 0.300000 0
9.500000 0.300000 0
9.600000 0.300000 0
9.700000 0.300000 0
9.800000 0.300000 0
9.900000 0.300000 0
10.000000 0.300000 0
0.000000 0.400000 0
0.100000 0.400000 0
0.200000 0.400000 0
0.300000 0.400000 0
0.400000 0.400000 0
0.500000 0.400000 0
0.600000 0.400000 0
0.700000 0.400000 0
0.800000 0.400000 0
0.900000 0.400000 0
1.000000 0.400000 0
1.100000 0.400000 0
1.200000 0.400000 0
1.300000 0.400000 0
1.400000 0.400000 0
1.500000 0.400000 0
1.600000 0.400000 0
1.700000 0.400000 0
1.800000 0.400000 0
1.900000 0.400000 0
2.000000 0.400000 0
2.100000 0.400000 0
2.200000 0.400000 0
2.300000 0.400000 0
2.400000 0.400000 0
2.500000 0.400000 0
2.600000 0.400000 0
2.700000 0.400000 0
2.800000 0.400000 0
2.900000 0.400000 0
3.000000 0.400000 0
3.100000 0.400000 0
3.200000 0.400000 0
3.300000 0.400000 0
3.400000 0.400000 0
3.500000 0.400000 0
3.600000 0.400000 0
3.700000 0.400000 0
3.800000 0.400000 0
3.900000 0.400000 0
4.000000 0.400000 0
4.100000 0.400000 0
4.200000 0.400000 0
4.300000 0.400000 0
4.400000 0.400000 0
4.500000 0.400000 0
4.600000 0.400000 0
4.700000 0.400000 0
4.800000 0.400000 0
4.900000 0.400000 0
5.000000 0.400000 0
5.100000 0.400000 0
5.200000 0.400000 0
5.300000 0.400000 0
5.400000 0.400000 0
5.500000 0.400000 0
5.600000 0.400000 0
5.700000 0.400000 0
5.800000 0.400000 0
5.900000 0.400000 0
6.000000 0.400000 0
6.100000 0.400000 0
6.200000 0.400000 0
6.300000 0.400000 0
6.400000 0.400000 0
6.500000 0.400000 0
6.600000 0.400000 0
6.700000 0.400000 0
6.800000 0.400000 0
6.900000 0.400000 0
7.000000 0.400000 0
7.100000 0.400000 0
7.200000 0.400000 0
7.300000 0.400000 0
7.400000 0.400000 0
7.500000 0.400000 0
7.600000 0.400000 0
7.700000 0.400000 0
7.800000 0.400000 0
7.900000 0.400000 0
8.000000 0.400000 0
8.100000 0.400000 0
8.200000 0.400000 0
8.300000 0.400000 0
8.400000 0.400000 0
8.500000 0.400000 0
8.600000 0.400000 0
[...]
POINT_DATA 2121 

VECTORS velocity float
0.000000 0.000000 0
0.000000 0.000000 0
0.000000 0.000000 0
0.000000 0.000000 0
0.000000 0.000000 0
0.000000 0.000000 0
0.000000 0.000000 0
0.000000 0.000000 0
0.000000 0.000000 0
0.000000 0.000000 0
0.000000 0.000000 0
0.000001 0.000000 0
-0.000004 0.000000 0
-0.000004 0.000000 0
0.000003 0.000000 0
0.000015 0.000000 0
0.000036 0.000000 0
0.000064 0.000000 0
0.000102 0.000000 0
0.000146 0.000000 0
0.000196 0.000000 0
0.000246 0.000000 0
0.000291 0.000000 0
0.000324 0.000000 0
0.000339 0.000000 0
0.000334 0.000000 0
0.000309 0.000000 0
0.000265 0.000000 0
0.000209 0.000000 0
0.000140 0.000000 0
0.000067 0.000000 0
-0.000006 0.000000 0
-0.000075 0.000000 0
-0.000138 0.000000 0
-0.000192 0.000000 0
-0.000241 0.000000 0
-0.000278 0.000000 0
-0.000301 0.000000 0
-0.000319 0.000000 0
-0.000321 0.000000 0
-0.000314 0.000000 0
-0.000301 0.000000 0
-0.000283 0.000000 0
-0.000260 0.000000 0
-0.000233 0.000000 0
-0.000204 0.000000 0
-0.000174 0.000000 0
-0.000143 0.000000 0
-0.000112 0.000000 0
-0.000083 0.000000 0
-0.000057 0.000000 0
-0.000033 0.000000 0
-0.000012 0.000000 0
0.000006 0.000000 0
0.000021 0.000000 0
0.000031 0.000000 0
0.000037 0.000000 0
0.000040 0.000000 0
0.000040 0.000000 0
0.000037 0.000000 0
0.000032 0.000000 0
0.000025 0.000000 0
0.000017 0.000000 0
0.000008 0.000000 0
-0.000002 0.000000 0
-0.000012 0.000000 0
-0.000022 0.000000 0
-0.000031 0.000000 0
-0.000039 0.000000 0
-0.000045 0.000000 0
-0.000051 0.000000 0
-0.000055 0.000000 0
-0.000059 0.000000 0
-0.000061 0.000000 0
-0.000062 0.000000 0
-0.000062 0.000000 0
-0.000062 0.000000 0
-0.000061 0.000000 0
-0.000059 0.000000 0
-0.000057 0.000000 0
-0.000055 0.000000 0
-0.000053 0.000000 0
-0.000051 0.000000 0
-0.000049 0.000000 0
-0.000047 0.000000 0
-0.000045 0.000000 0
-0.000043 0.000000 0
-0.000042 0.000000 0
-0.000040 0.000000 0
-0.000039 0.000000 0
-0.000038 0.000000 0
-0.000037 0.000000 0
-0.000037 0.000000 0
-0.000036 0.000000 0
-0.000036 0.000000 0
-0.000036 0.000000 0
-0.000035 0.000000 0
-0.000035 0.000000 0
-0.000036 0.000000 0
-0.000036 0.000000 0
-0.000036 0.000000 0
0.000000 0.000000 0
0.000000 0.000000 0
0.000000 0.000000 0
0.000000 0.000000 0
0.000000 0.000000 0
0.000000 0.000000 0
0.000000 0.000000 0
0.000000 0.000000 0
0.000000 0.000000 0
0.000000 0.000823 0
0.000000 0.000013 0
-0.003049 -0.000514 0
-0.008789 0.001614 0
-0.017298 0.003229 0
-0.027467 0.004213 0
-0.038780 0.004985 0
-0.051182 0.005855 0
-0.064829 0.006951 0
-0.079889 0.008279 0
-0.096411 0.009746 0
-0.114219 0.011167 0
-0.132838 0.012279 0
-0.151447 0.012777 0
-0.168913 0.012392 0
-0.183920 0.010978 0
-0.195183 0.008564 0
-0.201659 0.005333 0
-0.202636 0.001579 0
-0.197934 -0.002440 0
-0.188008 -0.006449 0
-0.173565 -0.010103 0
-0.155422 -0.013215 0
-0.134302 -0.015726 0
-0.110913 -0.017568 0
-0.086061 -0.018758 0
-0.060450 -0.019440 0
-0.034453 -0.019551 0
-0.008723 -0.019241 0
0.015950 -0.018621 0
0.039213 -0.017494 0
0.060814 -0.016063 0
0.080595 -0.014559 0
0.098454 -0.013027 0
0.114335 -0.011493 0
0.128218 -0.009987 0
0.140121 -0.008536 0
0.150096 -0.007166 0
0.158227 -0.005898 0
0.164624 -0.004748 0
0.169421 -0.003726 0
0.172771 -0.002837 0
0.174839 -0.002081 0
0.175800 -0.001451 0
0.175833 -0.000935 0
0.175116 -0.000518 0
0.173811 -0.000219 0
0.172065 -0.000044 0
0.170012 0.000042 0
0.167770 0.000061 0
0.165441 0.000029 0
0.163113 -0.000044 0
0.160859 -0.000149 0
0.158736 -0.000278 0
0.156794 -0.000426 0
0.155066 -0.000586 0
0.153580 -0.000753 0
0.152353 -0.000916 0
0.151398 -0.001070 0
0.150694 -0.001212 0
0.150210 -0.001338 0
0.149918 -0.001448 0
0.149792 -0.001543 0
0.149808 -0.001623 0
0.149942 -0.001688 0
0.150169 -0.001738 0
0.150469 -0.001774 0
0.150821 -0.001799 0
0.151208 -0.001813 0
0.151616 -0.001818 0
0.152032 -0.001816 0
0.152447 -0.001809 0
0.152853 -0.001798 0
0.153243 -0.001784 0
0.153615 -0.001768 0
0.153966 -0.001751 0
0.154293 -0.001734 0
0.154598 -0.001717 0
0.154879 -0.001700 0
0.155138 -0.001685 0
0.155376 -0.001671 0
0.155595 -0.001657 0
0.155796 -0.001646 0
0.155981 -0.001635 0
0.156152 -0.001626 0
0.156309 -0.001617 0
0.156455 -0.001609 0
0.156590 -0.001602 0
0.156715 -0.001594 0
0.156829 -0.001584 0
0.156929 -0.001574 0
0.157010 -0.001578 0
0.000000 0.000000 0
0.000000 0.000000 0
0.000000 0.000000 0
0.000000 0.000000 0
0.000000 0.000000 0
0.000000 0.000000 0
0.000000 0.000000 0
0.000000 0.000000 0
0.000000 0.000000 0
0.000000 -0.000984 0
0.000000 0.000012 0
-0.007247 0.005790 0
-0.019970 0.012358 0
-0.036145 0.016788 0
-0.054087 0.019592 0
-0.073118 0.021825 0
-0.093099 0.024159 0
-0.114077 0.026817 0
-0.136054 0.029691 0
-0.158841 0.032439 0
-0.181946 0.034537 0
-0.204517 0.035338 0
-0.225313 0.034185 0
-0.242753 0.030582 0
-0.255126 0.024380 0
-0.260874 0.015849 0
-0.258933 0.005563 0
-0.249229 -0.005615 0
-0.232762 -0.016518 0
-0.210754 -0.026259 0
-0.184315 -0.034477 0
-0.154551 -0.041153 0
-0.122262 -0.046399 0
-0.088088 -0.050131 0
-0.052753 -0.052353 0
-0.017009 -0.053499 0
0.018237 -0.053617 0
0.052643 -0.052293 0
0.085549 -0.049827 0
0.116696 -0.046755 0
0.145959 -0.043272 0
0.173118 -0.039531 0
0.198004 -0.035631 0
0.220506 -0.031654 0
0.240558 -0.027676 0
0.258135 -0.023768 0
0.273252 -0.019996 0
0.285959 -0.016418 0
0.296341 -0.013084 0
0.304515 -0.010037 0
0.310628 -0.007308 0
0.314856 -0.004920 0
0.317397 -0.002885 0
0.318470 -0.001206 0
0.318314 0.000131 0
0.317165 0.001161 0
0.315207 0.001909 0
0.312628 0.002405 0
0.309608 0.002680 0
0.306313 0.002766 0
0.302892 0.002692 0
0.299474 0.002487 0
0.296168 0.002175 0
0.293060 0.001780 0
0.290220 0.001324 0
0.287692 0.000822 0
0.285506 0.000292 0
0.283674 -0.000231 0
0.282196 -0.000703 0
0.281074 -0.001114 0
0.280285 -0.001472 0
0.279776 -0.001781 0
0.279506 -0.002040 0
0.279433 -0.002251 0
0.279521 -0.002417 0
0.279736 -0.002542 0
0.280047 -0.002630 0
0.280428 -0.002685 0
0.280856 -0.002714 0
0.281311 -0.002721 0
0.281779 -0.002711 0
0.282245 -0.002687 0
0.282701 -0.002653 0
0.283138 -0.002613 0
0.283552 -0.002568 0
0.283940 -0.002522 0
0.284299 -0.002476 0
0.284628 -0.002431 0
0.284928 -0.002388 0
0.285201 -0.002347 0
0.285447 -0.002310 0
0.285668 -0.002276 0
0.285867 -0.002246 0
0.286045 -0.002218 0
0.286205 -0.002194 0
0.286349 -0.002171 0
0.286477 -0.002150 0
0.286592 -0.002129 0
0.286693 -0.002104 0
0.286778 -0.002072 0
0.286829 -0.002062 0
0.000000 0.000000 0
0.000000 0.000000 0
0.000000 0.000000 0
0.000000 0.000000 0
0.000000 0.000000 0
0.000000 0.000000 0
0.000000 0.000000 0
0.000000 0.000000 0
0.000000 0.000000 0
0.000000 -0.004935 0
0.000000 0.000002 0
-0.010848 0.017566 0
-0.028779 0.029730 0
-0.049457 0.036563 0
-0.070637 0.040403 0
-0.091600 0.043215 0
-0.112219 0.046032 0
-0.132513 0.049125 0
-0.152443 0.052261 0
-0.171789 0.054856 0
-0.190055 0.056061 0
-0.206412 0.054864 0
-0.219653 0.050231 0
-0.228101 0.041423 0
-0.229900 0.028317 0
-0.223325 0.011589 0
-0.208319 -0.007094 0
-0.187125 -0.025374 0
-0.161200 -0.041697 0
-0.131636 -0.055678 0
-0.099116 -0.067088 0
-0.064503 -0.076050 0
-0.028584 -0.082971 0
0.007894 -0.087860 0
0.044561 -0.090619 0
0.080966 -0.091212 0
0.116365 -0.089985 0
0.150514 -0.087336 0
0.183426 -0.083456 0
0.214834 -0.078686 0
0.244507 -0.073266 0
0.272243 -0.067387 0
0.297878 -0.061197 0
0.321300 -0.054829 0
0.342431 -0.048398 0
0.361232 -0.042012 0
0.377690 -0.035772 0
0.391824 -0.029769 0
0.403682 -0.024086 0
0.413338 -0.018796 0
0.420892 -0.013960 0
0.426474 -0.009631 0
0.430234 -0.005847 0
0.432348 -0.002634 0
0.433005 0.000005 0
0.432426 0.002106 0
0.430829 0.003711 0
0.428417 0.004859 0
0.425385 0.005593 0
0.421920 0.005962 0
0.418191 0.006013 0
0.414355 0.005793 0
0.410544 0.005353 0
0.406870 0.004740 0
0.403420 0.004000 0
0.400257 0.003179 0
0.397414 0.002321 0
0.394904 0.001458 0
0.392747 0.000605 0
0.390954 -0.000208 0
0.389522 -0.000932 0
0.388441 -0.001546 0
0.387667 -0.002062 0
0.387151 -0.002485 0
0.386848 -0.002822 0
0.386719 -0.003082 0
0.386726 -0.003273 0
0.386838 -0.003404 0
0.387027 -0.003484 0
0.387270 -0.003521 0
0.387547 -0.003525 0
0.387841 -0.003502 0
0.388141 -0.003459 0
0.388434 -0.003402 0
0.388715 -0.003335 0
0.388977 -0.003262 0
0.389216 -0.003187 0
0.389429 -0.003112 0
0.389616 -0.003040 0
0.389776 -0.002971 0
0.389910 -0.002907 0
0.390019 -0.002848 0
0.390105 -0.002794 0
0.390170 -0.002746 0
0.390214 -0.002703 0
0.390241 -0.002663 0
0.390252 -0.002627 0
0.390248 -0.002591 0
0.390232 -0.002553 0
0.390202 -0.002492 0
0.390135 -0.002464 0
0.000000 0.000000 0
0.000000 0.000000 0
0.000000 0.000000 0
0.000000 0.000000 0
0.000000 0.000000 0
0.000000 0.000000 0
0.000000 0.000000 0
0.000000 0.000000 0
0.000000 0.000000 0
0.000000 -0.010354 0
0.000000 -0.000009 0
-0.013016 0.032679 0
-0.033024 0.050184 0
-0.053971 0.057863 0
-0.073384 0.060953 0
-0.090722 0.062625 0
-0.106052 0.064291 0
-0.119527 0.066259 0
-0.131222 0.068185 0
-0.141067 0.069269 0
-0.148705 0.068378 0
-0.153491 0.064154 0
-0.154477 0.055091 0
-0.149942 0.040047 0
-0.137991 0.018822 0
-0.117151 -0.006514 0
-0.091298 -0.031420 0
-0.062441 -0.053516 0
-0.031603 -0.072789 0
0.000712 -0.089125 0
0.034143 -0.102391 0
0.068384 -0.112467 0
0.102900 -0.119578 0
0.137112 -0.124058 0
0.170739 -0.126207 0
0.203579 -0.126086 0
0.235605 -0.123948 0
0.266533 -0.120136 0
0.296239 -0.114928 0
0.324545 -0.108618 0
0.351274 -0.101463 0
0.376275 -0.093684 0
0.399425 -0.085470 0
0.420635 -0.076989 0
0.439844 -0.068390 0
0.457021 -0.059809 0
0.472153 -0.051371 0
0.485253 -0.043192 0
0.496353 -0.035380 0
0.505505 -0.028029 0
0.512780 -0.021227 0
0.518271 -0.015044 0
0.522088 -0.009541 0
0.524357 -0.004759 0
0.525219 -0.000729 0
0.524839 0.002555 0
0.523412 0.005137 0
0.521113 0.007067 0
0.518121 0.008395 0
0.514609 0.009178 0
0.510744 0.009475 0
0.506681 0.009352 0
0.502561 0.008877 0
0.498504 0.008121 0
0.494612 0.007155 0
0.490961 0.006047 0
0.487608 0.004862 0
0.484590 0.003654 0
0.481921 0.002466 0
0.479588 0.001329 0
0.477582 0.000258 0
0.475904 -0.000709 0
0.474548 -0.001532 0
0.473487 -0.002215 0
0.472675 -0.002767 0
0.472072 -0.003202 0
0.471639 -0.003531 0
0.471342 -0.003769 0
0.471149 -0.003928 0
0.471037 -0.004023 0
0.470981 -0.004064 0
0.470966 -0.004063 0
0.470974 -0.004029 0
0.470994 -0.003970 0
0.471017 -0.003893 0
0.471034 -0.003805 0
0.471040 -0.003710 0
0.471030 -0.003613 0
0.471002 -0.003517 0
0.470955 -0.003424 0
0.470886 -0.003336 0
0.470796 -0.003253 0
0.470686 -0.003178 0
0.470557 -0.003109 0
0.470410 -0.003047 0
0.470247 -0.002991 0
0.470069 -0.002940 0
0.469877 -0.002891 0
0.469675 -0.002840 0
0.469461 -0.002757 0
0.469222 -0.002712 0
0.000000 0.000000 0
0.000000 0.000000 0
0.000000 0.000000 0
0.000000 0.000000 0
0.000000 0.000000 0
0.000000 0.000000 0
0.000000 0.000000 0
0.000000 0.000000 0
0.000000 0.000000 0
0.000000 -0.016467 0
0.000000 -0.000013 0
-0.014102 0.048699 0
-0.033079 0.069902 0
-0.050125 0.076142 0
-0.063304 0.076372 0
-0.072638 0.075101 0
-0.078546 0.074054 0
-0.081370 0.073513 0
-0.081309 0.073019 0
-0.078487 0.071557 0
-0.072605 0.067703 0
-0.062970 0.059853 0
-0.048683 0.045900 0
-0.027899 0.024155 0
-0.000446 -0.005256 0
0.030084 -0.035886 0
0.061150 -0.062586 0
0.092740 -0.085851 0
0.124423 -0.105632 0
0.156060 -0.122206 0
0.187378 -0.135543 0
0.218383 -0.145590 0
0.248955 -0.152482 0
0.278994 -0.156480 0
0.308253 -0.157868 0
0.336581 -0.156861 0
0.363923 -0.153721 0
0.390153 -0.148752 0
0.415165 -0.142250 0
0.438849 -0.134503 0
0.461097 -0.125779 0
0.481812 -0.116319 0
0.500916 -0.106339 0
0.518352 -0.096030 0
0.534082 -0.085566 0
0.548088 -0.075103 0
0.560368 -0.064787 0
0.570934 -0.054752 0
0.579815 -0.045119 0
0.587052 -0.036004 0
0.592705 -0.027509 0
0.596845 -0.019721 0
0.599561 -0.012716 0
0.600952 -0.006547 0
0.601131 -0.001259 0
0.600225 0.003130 0
0.598363 0.006655 0
0.595684 0.009367 0
0.592336 0.011315 0
0.588469 0.012557 0
0.584231 0.013159 0
0.579767 0.013195 0
0.575207 0.012748 0
0.570672 0.011907 0
0.566264 0.010761 0
0.562069 0.009400 0
0.558152 0.007909 0
0.554562 0.006363 0
0.551324 0.004826 0
0.548444 0.003349 0
0.545912 0.001970 0
0.543694 0.000705 0
0.541779 -0.000427 0
0.540157 -0.001394 0
0.538808 -0.002190 0
0.537695 -0.002828 0
0.536780 -0.003324 0
0.536028 -0.003696 0
0.535406 -0.003961 0
0.534888 -0.004136 0
0.534449 -0.004236 0
0.534069 -0.004277 0
0.533732 -0.004270 0
0.533425 -0.004227 0
0.533135 -0.004157 0
0.532854 -0.004067 0
0.532575 -0.003966 0
0.532292 -0.003857 0
0.532001 -0.003746 0
0.531698 -0.003637 0
0.531383 -0.003531 0
0.531054 -0.003431 0
0.530710 -0.003338 0
0.530351 -0.003252 0
0.529978 -0.003174 0
0.529592 -0.003104 0
0.529194 -0.003039 0
0.528785 -0.002980 0
0.528367 -0.002919 0
0.527942 -0.002822 0
0.527507 -0.002767 0
0.000000 0.000000 0
0.000000 0.000000 0
0.000000 0.000000 0
0.000000 0.000000 0
0.000000 0.000000 0
0.000000 0.000000 0
0.000000 0.000000 0
0.000000 0.000000 0
0.000000 0.000000 0
0.000000 -0.022955 0
0.000000 -0.000007 0
-0.015073 0.063868 0
-0.029830 0.085425 0
-0.038484 0.087306 0
-0.041070 0.082684 0
-0.038698 0.077085 0
-0.032127 0.072241 0
-0.021717 0.068240 0
-0.007747 0.064521 0
0.009602 0.059783 0
0.030708 0.052078 0
0.056530 0.039449 0
0.088547 0.019238 0
0.124936 -0.008972 0
0.162091 -0.039943 0
0.196156 -0.068893 0
0.228533 -0.094857 0
0.259527 -0.117571 0
0.289485 -0.136891 0
0.318453 -0.152862 0
0.346377 -0.165497 0
0.373294 -0.174827 0
0.399234 -0.180971 0
0.424206 -0.184138 0
0.448154 -0.184576 0
0.471028 -0.182539 0
0.492805 -0.178302 0
0.513444 -0.172160 0
0.532904 -0.164407 0
0.551136 -0.155332 0
0.568093 -0.145207 0
0.583730 -0.134285 0
0.598012 -0.122793 0
0.610911 -0.110938 0
0.622411 -0.098909 0
0.632508 -0.086877 0
0.641204 -0.074999 0
0.648512 -0.063421 0
0.654456 -0.052280 0
0.659067 -0.041702 0
0.662391 -0.031802 0
0.664485 -0.022683 0
0.665420 -0.014431 0
0.665278 -0.007111 0
0.664153 -0.000784 0
0.662129 0.004541 0
0.659286 0.008896 0
0.655734 0.012311 0
0.651594 0.014828 0
0.646992 0.016500 0
0.642058 0.017395 0
0.636918 0.017595 0
0.631690 0.017190 0
0.626487 0.016282 0
0.621407 0.014975 0
0.616533 0.013376 0
0.611934 0.011586 0
0.607663 0.009700 0
0.603753 0.007801 0
0.600222 0.005959 0
0.597070 0.004226 0
0.594282 0.002642 0
0.591824 0.001222 0
0.589666 -0.000026 0
0.587788 -0.001088 0
0.586170 -0.001956 0
0.584781 -0.002646 0
0.583582 -0.003177 0
0.582542 -0.003571 0
0.581630 -0.003848 0
0.580819 -0.004028 0
0.580087 -0.004129 0
0.579415 -0.004166 0
0.578787 -0.004154 0
0.578191 -0.004104 0
0.577616 -0.004027 0
0.577054 -0.003930 0
0.576499 -0.003822 0
0.575945 -0.003706 0
0.575388 -0.003589 0
0.574826 -0.003473 0
0.574257 -0.003362 0
0.573679 -0.003257 0
0.573092 -0.003160 0
0.572495 -0.003070 0
0.571889 -0.002989 0
0.571274 -0.002915 0
0.570652 -0.002847 0
0.570024 -0.002779 0
0.569393 -0.002679 0
0.568765 -0.002622 0
0.000000 0.000000 0
0.000000 0.000000 0
0.000000 0.000000 0
0.000000 0.000000 0
0.000000 0.000000 0
0.000000 0.000000 0
0.000000 0.000000 0
0.000000 0.000000 0
0.000000 0.000000 0
0.000000 -0.030025 0
0.000000 0.000002 0
-0.015706 0.076639 0
-0.020381 0.092531 0
-0.013807 0.086600 0
-0.000087 0.075804 0
0.018086 0.065375 0
0.040032 0.056291 0
0.065582 0.048351 0
0.094850 0.040919 0
0.128604 0.032320 0
0.166771 0.019992 0
0.208670 0.001232 0
0.252707 -0.023287 0
0.295405 -0.050171 0
0.333864 -0.077258 0
0.368493 -0.103111 0
0.400056 -0.126740 0
0.429060 -0.147585 0
0.455932 -0.165341 0
0.480936 -0.179880 0
0.504238 -0.191166 0
0.525990 -0.199229 0
0.546326 -0.204176 0
0.565355 -0.206183 0
0.583148 -0.205472 0
0.599757 -0.202294 0
0.615229 -0.196919 0
0.629598 -0.189633 0
0.642883 -0.180724 0
0.655098 -0.170474 0
0.666248 -0.159155 0
0.676336 -0.147020 0
0.685362 -0.134302 0
0.693329 -0.121212 0
0.700242 -0.107945 0
0.706104 -0.094678 0
0.710923 -0.081574 0
0.714708 -0.068786 0
0.717473 -0.056457 0
0.719235 -0.044722 0
0.720022 -0.033709 0
0.719871 -0.023532 0
0.718830 -0.014290 0
0.716958 -0.006062 0
0.714321 0.001108 0
0.710940 0.007215 0
0.706883 0.012267 0
0.702236 0.016276 0
0.697101 0.019275 0
0.691587 0.021311 0
0.685807 0.022451 0
0.679870 0.022780 0
0.673884 0.022396 0
0.667947 0.021408 0
0.662148 0.019933 0
0.656565 0.018091 0
0.651265 0.015997 0
0.646300 0.013762 0
0.641708 0.011484 0
0.637512 0.009250 0
0.633720 0.007127 0
0.630328 0.005169 0
0.627318 0.003407 0
0.624656 0.001859 0
0.622304 0.000523 0
0.620233 -0.000603 0
0.618414 -0.001519 0
0.616818 -0.002240 0
0.615409 -0.002791 0
0.614155 -0.003195 0
0.613025 -0.003475 0
0.611994 -0.003655 0
0.611039 -0.003752 0
0.610142 -0.003785 0
0.609288 -0.003768 0
0.608464 -0.003713 0
0.607662 -0.003631 0
0.606874 -0.003530 0
0.606094 -0.003418 0
0.605318 -0.003300 0
0.604542 -0.003182 0
0.603764 -0.003066 0
0.602982 -0.002954 0
0.602196 -0.002850 0
0.601404 -0.002754 0
0.600607 -0.002666 0
0.599806 -0.002585 0
0.599000 -0.002512 0
0.598191 -0.002442 0
0.597382 -0.002346 0
0.596588 -0.002292 0
0.000000 0.000000 0
0.000000 0.000000 0
0.000000 0.000000 0
0.000000 0.000000 0
0.000000 0.000000 0
0.000000 0.000000 0
0.000000 0.000000 0
0.000000 0.000000 0
0.000000 0.000000 0
0.000000 -0.037147 0
0.000000 0.000008 0
-0.007172 0.082359 0
0.013602 0.082744 0
0.045750 0.066230 0
0.082131 0.050008 0
0.121342 0.036184 0
0.162411 0.023962 0
0.204981 0.012639 0
0.249216 0.000717 0
0.295325 -0.012920 0
0.342903 -0.028770 0
0.390410 -0.047269 0
0.434876 -0.068280 0
0.475172 -0.090911 0
0.511124 -0.113813 0
0.542919 -0.135866 0
0.570987 -0.156206 0
0.595781 -0.174229 0
0.617733 -0.189550 0
0.637202 -0.201950 0
0.654490 -0.211333 0
0.669857 -0.217697 0
0.683531 -0.221119 0
0.695708 -0.221742 0
0.706551 -0.219760 0
0.716193 -0.215403 0
0.724750 -0.208925 0
0.732317 -0.200595 0
0.738970 -0.190689 0
0.744774 -0.179479 0
0.749782 -0.167227 0
0.754036 -0.154181 0
0.757571 -0.140568 0
0.760416 -0.126600 0
0.762593 -0.112465 0
0.764118 -0.098340 0
0.764999 -0.084385 0
0.765241 -0.070753 0
0.764845 -0.057589 0
0.763810 -0.045034 0
0.762141 -0.033220 0
0.759848 -0.022273 0
0.756953 -0.012300 0
0.753474 -0.003384 0
0.749399 0.004452 0
0.744739 0.011196 0
0.739544 0.016818 0
0.733890 0.021311 0
0.727862 0.024695 0
0.721555 0.027012 0
0.715065 0.028330 0
0.708487 0.028735 0
0.701911 0.028332 0
0.695422 0.027236 0
0.689097 0.025575 0
0.683004 0.023476 0
0.677203 0.021069 0
0.671741 0.018475 0
0.666657 0.015808 0
0.661974 0.013164 0
0.657706 0.010628 0
0.653855 0.008262 0
0.650408 0.006112 0
0.647346 0.004206 0
0.644636 0.002554 0
0.642238 0.001152 0
0.640113 -0.000013 0
0.638230 -0.000954 0
0.636555 -0.001690 0
0.635054 -0.002246 0
0.633696 -0.002649 0
0.632452 -0.002925 0
0.631296 -0.003096 0
0.630207 -0.003185 0
0.629169 -0.003209 0
0.628167 -0.003184 0
0.627191 -0.003122 0
0.626232 -0.003036 0
0.625285 -0.002932 0
0.624345 -0.002819 0
0.623408 -0.002701 0
0.622472 -0.002585 0
0.621536 -0.002471 0
0.620598 -0.002364 0
0.619658 -0.002264 0
0.618716 -0.002173 0
0.617772 -0.002090 0
0.616827 -0.002014 0
0.615882 -0.001944 0
0.614939 -0.001858 0
0.614018 -0.001812 0
-0.500000 0.000000 0
-0.470818 0.000000 0
-0.429253 0.000000 0
-0.387894 0.000000 0
-0.351090 0.000000 0
-0.320284 0.000000 0
-0.295898 0.000000 0
-0.278171 0.000000 0
-0.268092 0.000000 0
-0.269795 -0.035694 0
0.000000 0.000006 0
0.064094 0.061146 0
0.134850 0.038827 0
0.199194 0.017290 0
0.257421 -0.000571 0
0.311505 -0.015687 0
0.362662 -0.028130 0
0.411749 -0.039236 0
0.459258 -0.050208 0
0.504826 -0.062149 0
0.548236 -0.075875 0
0.588948 -0.091524 0
0.626336 -0.108831 0
0.659748 -0.127201 0
0.688984 -0.145788 0
0.714130 -0.163755 0
0.735465 -0.180384 0
0.753352 -0.195114 0
0.768182 -0.207544 0
0.780328 -0.217420 0
0.790137 -0.224602 0
0.797920 -0.229052 0
0.803960 -0.230809 0
0.808503 -0.229985 0
0.811764 -0.226740 0
0.813930 -0.221276 0
0.815163 -0.213825 0
0.815603 -0.204635 0
0.815370 -0.193963 0
0.814569 -0.182068 0
0.813291 -0.169199 0
0.811614 -0.155591 0
0.809602 -0.141464 0
0.807309 -0.127017 0
0.804775 -0.112429 0
0.802025 -0.097866 0
0.799070 -0.083480 0
0.795909 -0.069413 0
0.792528 -0.055807 0
0.788908 -0.042800 0
0.785026 -0.030530 0
0.780864 -0.019127 0