# vtk DataFile Version 2.0
generated by CFD-lab course output (written by Tobias Neckel) 
ASCII

DATASET STRUCTURED_GRID
DIMENSIONS  101 21 1 
POINTS 2121 float

0.000000 0.000000 0
0.100000 0.000000 0
0.200000 0.000000 0
0.300000 0.000000 0
0.400000 0.000000 0
0.500000 0.000000 0
0.600000 0.000000 0
0.700000 0.000000 0
0.800000 0.000000 0
0.900000 0.000000 0
1.000000 0.000000 0
1.100000 0.000000 0
1.200000 0.000000 0
1.300000 0.000000 0
1.400000 0.000000 0
1.500000 0.000000 0
1.600000 0.000000 0
1.700000 0.000000 0
1.800000 0.000000 0
1.900000 0.000000 0
2.000000 0.000000 0
2.100000 0.000000 0
2.200000 0.000000 0
2.300000 0.000000 0
2.400000 0.000000 0
2.500000 0.000000 0
2.600000 0.000000 0
2.700000 0.000000 0
2.800000 0.000000 0
2.900000 0.000000 0
3.000000 0.000000 0
3.100000 0.000000 0
3.200000 0.000000 0
3.300000 0.000000 0
3.400000 0.000000 0
3.500000 0.000000 0
3.600000 0.000000 0
3.700000 0.000000 0
3.800000 0.000000 0
3.900000 0.000000 0
4.000000 0.000000 0
4.100000 0.000000 0
4.200000 0.000000 0
4.300000 0.000000 0
4.400000 0.000000 0
4.500000 0.000000 0
4.600000 0.000000 0
4.700000 0.000000 0
4.800000 0.000000 0
4.900000 0.000000 0
5.000000 0.000000 0
5.100000 0.000000 0
5.200000 0.000000 0
5.300000 0.000000 0
5.400000 0.000000 0
5.500000 0.000000 0
5.600000 0.000000 0
5.700000 0.000000 0
5.800000 0.000000 0
5.900000 0.000000 0
6.000000 0.000000 0
6.100000 0.000000 0
6.200000 0.000000 0
6.300000 0.000000 0
6.400000 0.000000 0
6.500000 0.000000 0
6.600000 0.000000 0
6.700000 0.000000 0
6.800000 0.000000 0
6.900000 0.000000 0
7.000000 0.000000 0
7.100000 0.000000 0
7.200000 0.000000 0
7.300000 0.000000 0
7.400000 0.000000 0
7.500000 0.000000 0
7.600000 0.000000 0
7.700000 0.000000 0
7.800000 0.000000 0
7.900000 0.000000 0
8.000000 0.000000 0
8.100000 0.000000 0
8.200000 0.000000 0
8.300000 0.000000 0
8.400000 0.000000 0
8.500000 0.000000 0
8.600000 0.000000 0
8.700000 0.000000 0
8.800000 0.000000 0
8.900000 0.000000 0
9.000000 0.000000 0
9.100000 0.000000 0
9.200000 0.000000 0
9.300000 0.000000 0
9.400000 0.000000 0
9.500000 0.000000 0
9.600000 0.000000 0
9.700000 0.000000 0
9.800000 0.000000 0
9.900000 0.000000 0
10.000000 0.000000 0
0.000000 0.100000 0
0.100000 0.100000 0
0.200000 0.100000 0
0.300000 0.100000 0
0.400000 0.100000 0
0.500000 0.100000 0
0.600000 0.100000 0
0.700000 0.100000 0
0.800000 0.100000 0
0.900000 0.100000 0
1.000000 0.100000 0
1.100000 0.100000 0
1.200000 0.100000 0
1.300000 0.100000 0
1.400000 0.100000 0
1.500000 0.100000 0
1.600000 0.100000 0
1.700000 0.100000 0
1.800000 0.100000 0
1.900000 0.100000 0
2.000000 0.100000 0
2.100000 0.100000 0
2.200000 0.100000 0
2.300000 0.100000 0
2.400000 0.100000 0
2.500000 0.100000 0
2.600000 0.100000 0
2.700000 0.100000 0
2.800000 0.100000 0
2.900000 0.100000 0
3.000000 0.100000 0
3.100000 0.100000 0
3.200000 0.100000 0
3.300000 0.100000 0
3.400000 0.100000 0
3.500000 0.100000 0
3.600000 0.100000 0
3.700000 0.100000 0
3.800000 0.100000 0
3.900000 0.100000 0
4.000000 0.100000 0
4.100000 0.100000 0
4.200000 0.100000 0
4.300000 0.100000 0
4.400000 0.100000 0
4.500000 0.100000 0
4.600000 0.100000 0
4.700000 0.100000 0
4.800000 0.100000 0
4.900000 0.100000 0
5.000000 0.100000 0
5.100000 0.100000 0
5.200000 0.100000 0
5.300000 0.100000 0
5.400000 0.100000 0
5.500000 0.100000 0
5.600000 0.100000 0
5.700000 0.100000 0
5.800000 0.100000 0
5.900000 0.100000 0
6.000000 0.100000 0
6.100000 0.100000 0
6.200000 0.100000 0
6.300000 0.100000 0
6.400000 0.100000 0
6.500000 0.100000 0
6.600000 0.100000 0
6.700000 0.100000 0
6.800000 0.100000 0
6.900000 0.100000 0
7.000000 0.100000 0
7.100000 0.100000 0
7.200000 0.100000 0
7.300000 0.100000 0
7.400000 0.100000 0
7.500000 0.100000 0
7.600000 0.100000 0
7.700000 0.100000 0
7.800000 0.100000 0
7.900000 0.100000 0
8.000000 0.100000 0
8.100000 0.100000 0
8.200000 0.100000 0
8.300000 0.100000 0
8.400000 0.100000 0
8.500000 0.100000 0
8.600000 0.100000 0
8.700000 0.100000 0
8.800000 0.100000 0
8.900000 0.100000 0
9.000000 0.100000 0
9.100000 0.100000 0
9.200000 0.100000 0
9.300000 0.100000 0
9.400000 0.100000 0
9.500000 0.100000 0
9.600000 0.100000 0
9.700000 0.100000 0
9.800000 0.100000 0
9.900000 0.100000 0
10.000000 0.100000 0
0.000000 0.200000 0
0.100000 0.200000 0
0.200000 0.200000 0
0.300000 0.200000 0
0.400000 0.200000 0
0.500000 0.200000 0
0.600000 0.200000 0
0.700000 0.200000 0
0.800000 0.200000 0
0.900000 0.200000 0
1.000000 0.200000 0
1.100000 0.200000 0
1.200000 0.200000 0
1.300000 0.200000 0
1.400000 0.200000 0
1.500000 0.200000 0
1.600000 0.200000 0
1.700000 0.200000 0
1.800000 0.200000 0
1.900000 0.200000 0
2.000000 0.200000 0
2.100000 0.200000 0
2.200000 0.200000 0
2.300000 0.200000 0
2.400000 0.200000 0
2.500000 0.200000 0
2.600000 0.200000 0
2.700000 0.200000 0
2.800000 0.200000 0
2.900000 0.200000 0
3.000000 0.200000 0
3.100000 0.200000 0
3.200000 0.200000 0
3.300000 0.200000 0
3.400000 0.200000 0
3.500000 0.200000 0
3.600000 0.200000 0
3.700000 0.200000 0
3.800000 0.200000 0
3.900000 0.200000 0
4.000000 0.200000 0
4.100000 0.200000 0
4.200000 0.200000 0
4.300000 0.200000 0
4.400000 0.200000 0
4.500000 0.200000 0
4.600000 0.200000 0
4.700000 0.200000 0
4.800000 0.200000 0
4.900000 0.200000 0
5.000000 0.200000 0
5.100000 0.200000 0
5.200000 0.200000 0
5.300000 0.200000 0
5.400000 0.200000 0
5.500000 0.200000 0
5.600000 0.200000 0
5.700000 0.200000 0
5.800000 0.200000 0
5.900000 0.200000 0
6.000000 0.200000 0
6.100000 0.200000 0
6.200000 0.200000 0
6.300000 0.200000 0
6.400000 0.200000 0
6.500000 0.200000 0
6.600000 0.200000 0
6.700000 0.200000 0
6.800000 0.200000 0
6.900000 0.200000 0
7.000000 0.200000 0
7.100000 0.200000 0
7.200000 0.200000 0
7.300000 0.200000 0
7.400000 0.200000 0
7.500000 0.200000 0
7.600000 0.200000 0
7.700000 0.200000 0
7.800000 0.200000 0
7.900000 0.200000 0
8.000000 0.200000 0
8.100000 0.200000 0
8.200000 0.200000 0
8.300000 0.200000 0
8.400000 0.200000 0
8.500000 0.200000 0
8.600000 0.200000 0
8.700000 0.200000 0
8.800000 0.200000 0
8.900000 0.200000 0
9.000000 0.200000 0
9.100000 0.200000 0
9.200000 0.200000 0
9.300000 0.200000 0
9.400000 0.200000 0
9.500000 0.200000 0
9.600000 0.200000 0
9.700000 0.200000 0
9.800000 0.200000 0
9.900000 0.200000 0
10.000000 0.200000 0
0.000000 0.300000 0
0.100000 0.300000 0
0.200000 0.300000 0
0.300000 0.300000 0
0.400000 0.300000 0
0.500000 0.300000 0
0.600000 0.300000 0
0.700000 0.300000 0
0.800000 0.300000 0
0.900000 0.300000 0
1.000000 0.300000 0
1.100000 0.300000 0
1.200000 0.300000 0
1.300000 0.300000 0
1.400000 0.300000 0
1.500000 0.300000 0
1.600000 0.300000 0
1.700000 0.300000 0
1.800000 0.300000 0
1.900000 0.300000 0
2.000000 0.300000 0
2.100000 0.300000 0
2.200000 0.300000 0
2.300000 0.300000 0
2.400000 0.300000 0
2.500000 0.300000 0
2.600000 0.300000 0
2.700000 0.300000 0
2.800000 0.300000 0
2.900000 0.300000 0
3.000000 0.300000 0
3.100000 0.300000 0
3.200000 0.300000 0
3.300000 0.300000 0
3.400000 0.300000 0
3.500000 0.300000 0
3.600000 0.300000 0
3.700000 0.300000 0
3.800000 0.300000 0
3.900000 0.300000 0
4.000000 0.300000 0
4.100000 0.300000 0
4.200000 0.300000 0
4.300000 0.300000 0
4.400000 0.300000 0
4.500000 0.300000 0
4.600000 0.300000 0
4.700000 0.300000 0
4.800000 0.300000 0
4.900000 0.300000 0
5.000000 0.300000 0
5.100000 0.300000 0
5.200000 0.300000 0
5.300000 0.300000 0
5.400000 0.300000 0
5.500000 0.300000 0
5.600000 0.300000 0
5.700000 0.300000 0
5.800000 0.300000 0
5.900000 0.300000 0
6.000000 0.300000 0
6.100000 0.300000 0
6.200000 0.300000 0
6.300000 0.300000 0
6.400000 0.300000 0
6.500000 0.300000 0
6.600000 0.300000 0
6.700000 0.300000 0
6.800000 0.300000 0
6.900000 0.300000 0
7.000000 0.300000 0
7.100000 0.300000 0
7.200000 0.300000 0
7.300000 0.300000 0
7.400000 0.300000 0
7.500000 0.300000 0
7.600000 0.300000 0
7.700000 0.300000 0
7.800000 0.300000 0
7.900000 0.300000 0
8.000000 0.300000 0
8.100000 0.300000 0
8.200000 0.300000 0
8.300000 0.300000 0
8.400000 0.300000 0
8.500000 0.300000 0
8.600000 0.300000 0
8.700000 0.300000 0
8.800000 0.300000 0
8.900000 0.300000 0
9.000000 0.300000 0
9.100000 0.300000 0
9.200000 0.300000 0
9.300000 0.300000 0
9.400000 0.300000 0
9.500000 0.300000 0
9.600000 0.300000 0
9.700000 0.300000 0
9.800000 0.300000 0
9.900000 0.300000 0
10.000000 0.300000 0
0.000000 0.400000 0
0.100000 0.400000 0
0.200000 0.400000 0
0.300000 0.400000 0
0.400000 0.400000 0
0.500000 0.400000 0
0.600000 0.400000 0
0.700000 0.400000 0
0.800000 0.400000 0
0.900000 0.400000 0
1.000000 0.400000 0
1.100000 0.400000 0
1.200000 0.400000 0
1.300000 0.400000 0
1.400000 0.400000 0
1.500000 0.400000 0
1.600000 0.400000 0
1.700000 0.400000 0
1.800000 0.400000 0
1.900000 0.400000 0
2.000000 0.400000 0
2.100000 0.400000 0
2.200000 0.400000 0
2.300000 0.400000 0
2.400000 0.400000 0
2.500000 0.400000 0
2.600000 0.400000 0
2.700000 0.400000 0
2.800000 0.400000 0
2.900000 0.400000 0
3.000000 0.400000 0
3.100000 0.400000 0
3.200000 0.400000 0
3.300000 0.400000 0
3.400000 0.400000 0
3.500000 0.400000 0
3.600000 0.400000 0
3.700000 0.400000 0
3.800000 0.400000 0
3.900000 0.400000 0
4.000000 0.400000 0
4.100000 0.400000 0
4.200000 0.400000 0
4.300000 0.400000 0
4.400000 0.400000 0
4.500000 0.400000 0
4.600000 0.400000 0
4.700000 0.400000 0
4.800000 0.400000 0
4.900000 0.400000 0
5.000000 0.400000 0
5.100000 0.400000 0
5.200000 0.400000 0
5.300000 0.400000 0
5.400000 0.400000 0
5.500000 0.400000 0
5.600000 0.400000 0
5.700000 0.400000 0
5.800000 0.400000 0
5.900000 0.400000 0
6.000000 0.400000 0
6.100000 0.400000 0
6.200000 0.400000 0
6.300000 0.400000 0
6.400000 0.400000 0
6.500000 0.400000 0
6.600000 0.400000 0
6.700000 0.400000 0
6.800000 0.400000 0
6.900000 0.400000 0
7.000000 0.400000 0
7.100000 0.400000 0
7.200000 0.400000 0
7.300000 0.400000 0
7.400000 0.400000 0
7.500000 0.400000 0
7.600000 0.400000 0
7.700000 0.400000 0
7.800000 0.400000 0
7.900000 0.400000 0
8.000000 0.400000 0
8.100000 0.400000 0
8.200000 0.400000 0
8.300000 0.400000 0
8.400000 0.400000 0
8.500000 0.400000 0
8.600000 0.400000 0
[...]
POINT_DATA 2121 

VECTORS velocity float
0.000000 0.000000 0
0.000000 0.000000 0
0.000000 0.000000 0
0.000000 0.000000 0
0.000000 0.000000 0
0.000000 0.000000 0
0.000000 0.000000 0
0.000000 0.000000 0
0.000000 0.000000 0
0.000000 0.000000 0
0.000000 0.000000 0
0.000001 0.000000 0
0.000001 0.000000 0
0.000000 0.000000 0
0.000000 0.000000 0
0.000000 0.000000 0
0.000000 0.000000 0
0.000000 0.000000 0
-0.000000 0.000000 0
-0.000000 0.000000 0
-0.000000 0.000000 0
-0.000000 0.000000 0
-0.000000 0.000000 0
-0.000000 0.000000 0
-0.000000 0.000000 0
-0.000000 0.000000 0
-0.000000 0.000000 0
-0.000000 0.000000 0
-0.000000 0.000000 0
0.000000 0.000000 0
0.000000 0.000000 0
-0.000000 0.000000 0
-0.000000 0.000000 0
-0.000000 0.000000 0
-0.000000 0.000000 0
0.000000 0.000000 0
0.000000 0.000000 0
0.000000 0.000000 0
-0.000000 0.000000 0
-0.000000 0.000000 0
-0.000000 0.000000 0
0.000000 0.000000 0
0.000000 0.000000 0
0.000000 0.000000 0
-0.000000 0.000000 0
-0.000000 0.000000 0
-0.000000 0.000000 0
0.000000 0.000000 0
0.000000 0.000000 0
0.000000 0.000000 0
-0.000000 0.000000 0
-0.000000 0.000000 0
-0.000000 0.000000 0
0.000000 0.000000 0
-0.000000 0.000000 0
-0.000000 0.000000 0
-0.000000 0.000000 0
-0.000000 0.000000 0
0.000000 0.000000 0
0.000000 0.000000 0
-0.000000 0.000000 0
-0.000000 0.000000 0
-0.000000 0.000000 0
-0.000000 0.000000 0
-0.000000 0.000000 0
-0.000000 0.000000 0
-0.000000 0.000000 0
-0.000000 0.000000 0
-0.000000 0.000000 0
-0.000000 0.000000 0
-0.000000 0.000000 0
-0.000000 0.000000 0
-0.000000 0.000000 0
-0.000000 0.000000 0
-0.000000 0.000000 0
-0.000000 0.000000 0
-0.000000 0.000000 0
-0.000000 0.000000 0
-0.000000 0.000000 0
-0.000000 0.000000 0
-0.000000 0.000000 0
-0.000000 0.000000 0
-0.000000 0.000000 0
-0.000000 0.000000 0
-0.000000 0.000000 0
-0.000000 0.000000 0
-0.000000 0.000000 0
-0.000000 0.000000 0
-0.000000 0.000000 0
-0.000000 0.000000 0
-0.000000 0.000000 0
-0.000000 0.000000 0
-0.000000 0.000000 0
-0.000000 0.000000 0
-0.000000 0.000000 0
-0.000000 0.000000 0
-0.000000 0.000000 0
-0.000000 0.000000 0
-0.000000 0.000000 0
-0.000000 0.000000 0
-0.000000 0.000000 0
0.000000 0.000000 0
0.000000 0.000000 0
0.000000 0.000000 0
0.000000 0.000000 0
0.000000 0.000000 0
0.000000 0.000000 0
0.000000 0.000000 0
0.000000 0.000000 0
0.000000 0.000000 0
0.000000 -0.000187 0
0.000000 0.000001 0
-0.002138 0.001758 0
-0.008371 0.003963 0
-0.016813 0.005086 0
-0.026023 0.005434 0
-0.035301 0.005467 0
-0.044432 0.005452 0
-0.053426 0.005489 0
-0.062358 0.005601 0
-0.071301 0.005771 0
-0.080283 0.005968 0
-0.089270 0.006141 0
-0.098136 0.006223 0
-0.106660 0.006141 0
-0.114527 0.005830 0
-0.121366 0.005254 0
-0.126805 0.004415 0
-0.130534 0.003342 0
-0.132315 0.002087 0
-0.132004 0.000731 0
-0.129571 -0.000655 0
-0.125127 -0.002029 0
-0.118865 -0.003329 0
-0.111027 -0.004491 0
-0.101858 -0.005507 0
-0.091563 -0.006379 0
-0.080339 -0.007083 0
-0.068431 -0.007588 0
-0.056093 -0.007905 0
-0.043546 -0.008118 0
-0.030848 -0.008226 0
-0.018201 -0.008160 0
-0.005754 -0.007995 0
0.006294 -0.007768 0
0.017841 -0.007439 0
0.028821 -0.007022 0
0.039183 -0.006560 0
0.048898 -0.006088 0
0.057951 -0.005615 0
0.066339 -0.005146 0
0.074066 -0.004687 0
0.081146 -0.004243 0
0.087597 -0.003818 0
0.093444 -0.003415 0
0.098716 -0.003037 0
0.103444 -0.002685 0
0.107661 -0.002360 0
0.111404 -0.002061 0
0.114709 -0.001790 0
0.117610 -0.001545 0
0.120143 -0.001325 0
0.122343 -0.001129 0
0.124242 -0.000955 0
0.125873 -0.000802 0
0.127264 -0.000668 0
0.128442 -0.000552 0
0.129435 -0.000452 0
0.130265 -0.000366 0
0.130955 -0.000293 0
0.131523 -0.000233 0
0.131989 -0.000182 0
0.132366 -0.000140 0
0.132671 -0.000107 0
0.132916 -0.000080 0
0.133112 -0.000060 0
0.133268 -0.000044 0
0.133393 -0.000033 0
0.133495 -0.000026 0
0.133580 -0.000022 0
0.133653 -0.000020 0
0.133719 -0.000020 0
0.133781 -0.000023 0
0.133843 -0.000026 0
0.133907 -0.000030 0
0.133975 -0.000035 0
0.134048 -0.000041 0
0.134128 -0.000046 0
0.134214 -0.000052 0
0.134307 -0.000057 0
0.134407 -0.000061 0
0.134512 -0.000065 0
0.134622 -0.000067 0
0.134735 -0.000068 0
0.134848 -0.000067 0
0.134959 -0.000064 0
0.135062 -0.000058 0
0.135155 -0.000048 0
0.135229 -0.000035 0
0.135281 -0.000020 0
0.135306 -0.000006 0
0.135306 -0.000000 0
0.000000 0.000000 0
0.000000 0.000000 0
0.000000 0.000000 0
0.000000 0.000000 0
0.000000 0.000000 0
0.000000 0.000000 0
0.000000 0.000000 0
0.000000 0.000000 0
0.000000 0.000000 0
0.000000 -0.002137 0
0.000000 0.000002 0
-0.005613 0.008373 0
-0.017549 0.014676 0
-0.032199 0.017653 0
-0.047497 0.018489 0
-0.062512 0.018410 0
-0.076947 0.018125 0
-0.090792 0.017925 0
-0.104122 0.017874 0
-0.116995 0.017925 0
-0.129402 0.017969 0
-0.141246 0.017853 0
-0.152305 0.017390 0
-0.162232 0.016391 0
-0.170558 0.014705 0
-0.176756 0.012277 0
-0.180334 0.009168 0
-0.180944 0.005511 0
-0.178346 0.001470 0
-0.172709 -0.002744 0
-0.164263 -0.006877 0
-0.153349 -0.010706 0
-0.140332 -0.014099 0
-0.125591 -0.017007 0
-0.109476 -0.019464 0
-0.092256 -0.021519 0
-0.074172 -0.023132 0
-0.055500 -0.024246 0
-0.036483 -0.024885 0
-0.017307 -0.025246 0
0.001660 -0.025345 0
0.020288 -0.025094 0
0.038473 -0.024495 0
0.056026 -0.023595 0
0.072850 -0.022527 0
0.088892 -0.021342 0
0.104114 -0.020077 0
0.118474 -0.018768 0
0.131948 -0.017441 0
0.144524 -0.016115 0
0.156206 -0.014807 0
0.167004 -0.013531 0
0.176938 -0.012298 0
0.186035 -0.011119 0
0.194325 -0.009999 0
0.201847 -0.008945 0
0.208639 -0.007961 0
0.214745 -0.007047 0
0.220207 -0.006205 0
0.225071 -0.005435 0
0.229382 -0.004733 0
0.233184 -0.004099 0
0.236521 -0.003530 0
0.239436 -0.003021 0
0.241968 -0.002570 0
0.244157 -0.002172 0
0.246039 -0.001823 0
0.247649 -0.001520 0
0.249018 -0.001258 0
0.250177 -0.001034 0
0.251153 -0.000843 0
0.251971 -0.000683 0
0.252653 -0.000550 0
0.253219 -0.000440 0
0.253689 -0.000352 0
0.254079 -0.000282 0
0.254403 -0.000227 0
0.254673 -0.000187 0
0.254902 -0.000158 0
0.255098 -0.000139 0
0.255271 -0.000128 0
0.255427 -0.000124 0
0.255572 -0.000126 0
0.255712 -0.000132 0
0.255850 -0.000141 0
0.255991 -0.000153 0
0.256135 -0.000166 0
0.256286 -0.000180 0
0.256443 -0.000193 0
0.256608 -0.000205 0
0.256779 -0.000216 0
0.256957 -0.000223 0
0.257138 -0.000226 0
0.257320 -0.000223 0
0.257498 -0.000214 0
0.257668 -0.000196 0
0.257821 -0.000167 0
0.257950 -0.000127 0
0.258045 -0.000076 0
0.258093 -0.000024 0
0.258093 -0.000000 0
0.000000 0.000000 0
0.000000 0.000000 0
0.000000 0.000000 0
0.000000 0.000000 0
0.000000 0.000000 0
0.000000 0.000000 0
0.000000 0.000000 0
0.000000 0.000000 0
0.000000 0.000000 0
0.000000 -0.005803 0
0.000000 0.000001 0
-0.008598 0.019308 0
-0.024779 0.030547 0
-0.043142 0.035032 0
-0.061256 0.035744 0
-0.078235 0.034915 0
-0.093868 0.033730 0
-0.108197 0.032662 0
-0.121313 0.031801 0
-0.133256 0.031051 0
-0.143994 0.030220 0
-0.153407 0.029043 0
-0.161243 0.027208 0
-0.167135 0.024393 0
-0.170565 0.020354 0
-0.170934 0.015030 0
-0.167719 0.008603 0
-0.160668 0.001354 0
-0.150445 -0.006148 0
-0.137620 -0.013353 0
-0.122549 -0.020015 0
-0.105660 -0.025960 0
-0.087253 -0.031086 0
-0.067660 -0.035348 0
-0.047141 -0.038842 0
-0.026015 -0.041683 0
-0.004619 -0.043838 0
0.016876 -0.045276 0
0.038336 -0.046098 0
0.059624 -0.046261 0
0.080424 -0.045821 0
0.100644 -0.044973 0
0.120193 -0.043733 0
0.139057 -0.042146 0
0.157168 -0.040305 0
0.174463 -0.038286 0
0.190903 -0.036142 0
0.206455 -0.033922 0
0.221100 -0.031666 0
0.234829 -0.029405 0
0.247646 -0.027167 0
0.259561 -0.024975 0
0.270595 -0.022848 0
0.280770 -0.020802 0
0.290118 -0.018849 0
0.298670 -0.016999 0
0.306464 -0.015257 0
0.313538 -0.013629 0
0.319934 -0.012117 0
0.325692 -0.010720 0
0.330856 -0.009438 0
0.335467 -0.008268 0
0.339567 -0.007206 0
0.343197 -0.006248 0
0.346398 -0.005389 0
0.349207 -0.004623 0
0.351661 -0.003944 0
0.353797 -0.003345 0
0.355647 -0.002822 0
0.357243 -0.002367 0
0.358613 -0.001975 0
0.359784 -0.001640 0
0.360783 -0.001356 0
0.361631 -0.001117 0
0.362350 -0.000919 0
0.362959 -0.000757 0
0.363474 -0.000627 0
0.363912 -0.000525 0
0.364285 -0.000447 0
0.364607 -0.000389 0
0.364886 -0.000349 0
0.365134 -0.000324 0
0.365358 -0.000311 0
0.365565 -0.000309 0
0.365761 -0.000314 0
0.365950 -0.000325 0
0.366137 -0.000341 0
0.366325 -0.000360 0
0.366515 -0.000379 0
0.366710 -0.000398 0
0.366910 -0.000414 0
0.367114 -0.000426 0
0.367322 -0.000431 0
0.367531 -0.000428 0
0.367737 -0.000412 0
0.367935 -0.000381 0
0.368118 -0.000331 0
0.368276 -0.000258 0
0.368397 -0.000163 0
0.368463 -0.000055 0
0.368464 -0.000000 0
0.000000 0.000000 0
0.000000 0.000000 0
0.000000 0.000000 0
0.000000 0.000000 0
0.000000 0.000000 0
0.000000 0.000000 0
0.000000 0.000000 0
0.000000 0.000000 0
0.000000 0.000000 0
0.000000 -0.010737 0
0.000000 -0.000001 0
-0.010684 0.033150 0
-0.028993 0.049218 0
-0.048089 0.054128 0
-0.065511 0.053580 0
-0.080661 0.051020 0
-0.093563 0.048086 0
-0.104393 0.045369 0
-0.113299 0.042933 0
-0.120316 0.040607 0
-0.125373 0.038120 0
-0.128359 0.035102 0
-0.128989 0.031119 0
-0.126897 0.025712 0
-0.121578 0.018504 0
-0.112286 0.009432 0
-0.099179 -0.001098 0
-0.083325 -0.011763 0
-0.065592 -0.021578 0
-0.046366 -0.030641 0
-0.026130 -0.038837 0
-0.005125 -0.046001 0
0.016456 -0.052099 0
0.038449 -0.057118 0
0.060698 -0.061108 0
0.082964 -0.064041 0
0.105001 -0.066023 0
0.126692 -0.067201 0
0.147941 -0.067634 0
0.168621 -0.067334 0
0.188746 -0.066366 0
0.208215 -0.064863 0
0.226952 -0.062907 0
0.244935 -0.060569 0
0.262132 -0.057933 0
0.278512 -0.055078 0
0.294051 -0.052069 0
0.308736 -0.048964 0
0.322559 -0.045815 0
0.335523 -0.042661 0
0.347637 -0.039540 0
0.358918 -0.036480 0
0.369385 -0.033507 0
0.379065 -0.030641 0
0.387987 -0.027899 0
0.396182 -0.025292 0
0.403683 -0.022829 0
0.410527 -0.020517 0
0.416748 -0.018359 0
0.422385 -0.016357 0
0.427473 -0.014508 0
0.432050 -0.012810 0
0.436151 -0.011260 0
0.439813 -0.009852 0
0.443071 -0.008579 0
0.445957 -0.007436 0
0.448504 -0.006414 0
0.450742 -0.005505 0
0.452703 -0.004703 0
0.454412 -0.003999 0
0.455897 -0.003385 0
0.457181 -0.002853 0
0.458288 -0.002397 0
0.459240 -0.002007 0
0.460054 -0.001679 0
0.460751 -0.001406 0
0.461345 -0.001180 0
0.461852 -0.000998 0
0.462285 -0.000853 0
0.462657 -0.000740 0
0.462978 -0.000656 0
0.463258 -0.000596 0
0.463505 -0.000557 0
0.463728 -0.000534 0
0.463931 -0.000526 0
0.464122 -0.000529 0
0.464305 -0.000540 0
0.464483 -0.000558 0
0.464660 -0.000578 0
0.464837 -0.000600 0
0.465017 -0.000620 0
0.465201 -0.000635 0
0.465387 -0.000642 0
0.465576 -0.000638 0
0.465765 -0.000618 0
0.465949 -0.000577 0
0.466124 -0.000508 0
0.466279 -0.000406 0
0.466402 -0.000264 0
0.466474 -0.000091 0
0.466474 -0.000000 0
0.000000 0.000000 0
0.000000 0.000000 0
0.000000 0.000000 0
0.000000 0.000000 0
0.000000 0.000000 0
0.000000 0.000000 0
0.000000 0.000000 0
0.000000 0.000000 0
0.000000 0.000000 0
0.000000 -0.016487 0
0.000000 -0.000001 0
-0.012117 0.048297 0
-0.030126 0.067950 0
-0.046482 0.071549 0
-0.059389 0.068316 0
-0.068895 0.062967 0
-0.075383 0.057462 0
-0.079180 0.052398 0
-0.080520 0.047724 0
-0.079406 0.043126 0
-0.075647 0.038264 0
-0.069117 0.032659 0
-0.059414 0.025745 0
-0.045794 0.016981 0
-0.028281 0.005743 0
-0.008067 -0.007367 0
0.013691 -0.020358 0
0.035986 -0.032234 0
0.058720 -0.043107 0
0.081756 -0.052814 0
0.104765 -0.061256 0
0.127648 -0.068546 0
0.150271 -0.074661 0
0.172586 -0.079590 0
0.194487 -0.083357 0
0.215909 -0.085986 0
0.236827 -0.087566 0
0.257147 -0.088217 0
0.276795 -0.088027 0
0.295715 -0.087066 0
0.313913 -0.085415 0
0.331359 -0.083179 0
0.348026 -0.080453 0
0.363902 -0.077325 0
0.378982 -0.073882 0
0.393258 -0.070205 0
0.406730 -0.066366 0
0.419400 -0.062430 0
0.431277 -0.058453 0
0.442375 -0.054483 0
0.452710 -0.050562 0
0.462305 -0.046723 0
0.471186 -0.042996 0
0.479380 -0.039404 0
0.486917 -0.035966 0
0.493829 -0.032695 0
0.500148 -0.029602 0
0.505908 -0.026694 0
0.511140 -0.023975 0
0.515879 -0.021445 0
0.520156 -0.019103 0
0.524004 -0.016946 0
0.527454 -0.014970 0
0.530536 -0.013167 0
0.533279 -0.011532 0
0.535711 -0.010056 0
0.537858 -0.008729 0
0.539747 -0.007545 0
0.541401 -0.006492 0
0.542844 -0.005561 0
0.544095 -0.004745 0
0.545176 -0.004032 0
0.546105 -0.003414 0
0.546899 -0.002883 0
0.547574 -0.002430 0
0.548146 -0.002048 0
0.548628 -0.001729 0
0.549031 -0.001465 0
0.549368 -0.001252 0
0.549649 -0.001082 0
0.549883 -0.000950 0
0.550078 -0.000851 0
0.550243 -0.000781 0
0.550383 -0.000735 0
0.550504 -0.000709 0
0.550612 -0.000699 0
0.550711 -0.000702 0
0.550805 -0.000714 0
0.550897 -0.000733 0
0.550990 -0.000755 0
0.551086 -0.000778 0
0.551186 -0.000796 0
0.551291 -0.000807 0
0.551403 -0.000805 0
0.551519 -0.000785 0
0.551638 -0.000740 0
0.551757 -0.000661 0
0.551870 -0.000537 0
0.551965 -0.000358 0
0.552024 -0.000126 0
0.552024 -0.000000 0
0.000000 0.000000 0
0.000000 0.000000 0
0.000000 0.000000 0
0.000000 0.000000 0
0.000000 0.000000 0
0.000000 0.000000 0
0.000000 0.000000 0
0.000000 0.000000 0
0.000000 0.000000 0
0.000000 -0.022851 0
0.000000 -0.000001 0
-0.013428 0.063274 0
-0.027950 0.083584 0
-0.036975 0.083393 0
-0.040714 0.075995 0
-0.040369 0.067015 0
-0.036670 0.058370 0
-0.029889 0.050507 0
-0.020310 0.043161 0
-0.007905 0.035734 0
0.007741 0.027831 0
0.027223 0.018869 0
0.050265 0.007796 0
0.076028 -0.005422 0
0.103332 -0.019223 0
0.130563 -0.032539 0
0.156922 -0.045151 0
0.182570 -0.056793 0
0.207523 -0.067349 0
0.231698 -0.076686 0
0.255169 -0.084729 0
0.277892 -0.091508 0
0.299815 -0.097037 0
0.320929 -0.101334 0
0.341218 -0.104432 0
0.360687 -0.106381 0
0.379354 -0.107261 0
0.397210 -0.107169 0
0.414243 -0.106202 0
0.430447 -0.104451 0
0.445835 -0.102009 0
0.460418 -0.098976 0
0.474204 -0.095450 0
0.487204 -0.091525 0
0.499432 -0.087289 0
0.510901 -0.082826 0
0.521628 -0.078211 0
0.531631 -0.073512 0
0.540929 -0.068789 0
0.549545 -0.064094 0
0.557504 -0.059471 0
0.564833 -0.054956 0
0.571560 -0.050582 0
0.577715 -0.046373 0
0.583328 -0.042348 0
0.588430 -0.038523 0
0.593052 -0.034908 0
0.597225 -0.031509 0
0.600980 -0.028331 0
0.604345 -0.025373 0
0.607349 -0.022633 0
0.610020 -0.020108 0
0.612385 -0.017792 0
0.614469 -0.015676 0
0.616296 -0.013754 0
0.617888 -0.012015 0
0.619269 -0.010450 0
0.620457 -0.009048 0
0.621472 -0.007800 0
0.622331 -0.006693 0
0.623052 -0.005717 0
0.623648 -0.004863 0
0.624136 -0.004120 0
0.624526 -0.003477 0
0.624833 -0.002927 0
0.625065 -0.002459 0
0.625234 -0.002065 0
0.625349 -0.001738 0
0.625418 -0.001470 0
0.625448 -0.001255 0
0.625446 -0.001085 0
0.625419 -0.000956 0
0.625373 -0.000861 0
0.625312 -0.000796 0
0.625240 -0.000756 0
0.625162 -0.000736 0
0.625081 -0.000734 0
0.625001 -0.000744 0
0.624923 -0.000763 0
0.624851 -0.000788 0
0.624786 -0.000815 0
0.624730 -0.000840 0
0.624686 -0.000859 0
0.624655 -0.000866 0
0.624637 -0.000854 0
0.624633 -0.000816 0
0.624645 -0.000740 0
0.624668 -0.000613 0
0.624698 -0.000418 0
0.624724 -0.000151 0
0.624724 -0.000000 0
0.000000 0.000000 0
0.000000 0.000000 0
0.000000 0.000000 0
0.000000 0.000000 0
0.000000 0.000000 0
0.000000 0.000000 0
0.000000 0.000000 0
0.000000 0.000000 0
0.000000 0.000000 0
0.000000 -0.029912 0
0.000000 0.000000 0
-0.014123 0.076248 0
-0.018884 0.091500 0
-0.013193 0.084317 0
-0.001261 0.071712 0
0.014145 0.058923 0
0.032372 0.046982 0
0.053492 0.036039 0
0.077902 0.025742 0
0.105412 0.015076 0
0.135335 0.003136 0
0.167075 -0.009866 0
0.199763 -0.023061 0
0.231963 -0.036085 0
0.262688 -0.048790 0
0.291923 -0.060957 0
0.319603 -0.072366 0
0.345777 -0.082835 0
0.370502 -0.092235 0
0.393827 -0.100460 0
0.415853 -0.107450 0
0.436644 -0.113192 0
0.456247 -0.117698 0
0.474712 -0.120992 0
0.492089 -0.123115 0
0.508431 -0.124122 0
0.523794 -0.124090 0
0.538221 -0.123106 0
0.551746 -0.121263 0
0.564406 -0.118658 0
0.576237 -0.115387 0
0.587275 -0.111548 0
0.597552 -0.107239 0
0.607099 -0.102553 0
0.615946 -0.097579 0
0.624123 -0.092401 0
0.631657 -0.087096 0
0.638577 -0.081731 0
0.644911 -0.076367 0
0.650687 -0.071058 0
0.655934 -0.065849 0
0.660680 -0.060779 0
0.664956 -0.055878 0
0.668789 -0.051172 0
0.672209 -0.046681 0
0.675244 -0.042420 0
0.677923 -0.038398 0
0.680272 -0.034622 0
0.682316 -0.031094 0
0.684083 -0.027814 0
0.685594 -0.024778 0
0.686874 -0.021982 0
0.687944 -0.019418 0
0.688823 -0.017078 0
0.689531 -0.014952 0
0.690087 -0.013029 0
0.690506 -0.011298 0
0.690803 -0.009748 0
0.690994 -0.008366 0
0.691090 -0.007141 0
0.691104 -0.006062 0
0.691047 -0.005116 0
0.690929 -0.004292 0
0.690758 -0.003580 0
0.690542 -0.002969 0
0.690290 -0.002450 0
0.690006 -0.002012 0
0.689699 -0.001649 0
0.689372 -0.001350 0
0.689030 -0.001110 0
0.688678 -0.000922 0
0.688321 -0.000778 0
0.687961 -0.000673 0
0.687601 -0.000602 0
0.687245 -0.000559 0
0.686894 -0.000540 0
0.686550 -0.000540 0
0.686217 -0.000556 0
0.685895 -0.000583 0
0.685587 -0.000618 0
0.685294 -0.000657 0
0.685019 -0.000696 0
0.684764 -0.000731 0
0.684531 -0.000756 0
0.684324 -0.000764 0
0.684146 -0.000748 0
0.684001 -0.000695 0
0.683892 -0.000591 0
0.683823 -0.000414 0
0.683794 -0.000152 0
0.683794 -0.000000 0
0.000000 0.000000 0
0.000000 0.000000 0
0.000000 0.000000 0
0.000000 0.000000 0
0.000000 0.000000 0
0.000000 0.000000 0
0.000000 0.000000 0
0.000000 0.000000 0
0.000000 0.000000 0
0.000000 -0.036974 0
0.000000 0.000001 0
-0.005579 0.082160 0
0.015007 0.082658 0
0.046236 0.065772 0
0.080944 0.048657 0
0.117778 0.033380 0
0.155653 0.019022 0
0.193930 0.004977 0
0.232466 -0.008757 0
0.270990 -0.021698 0
0.308820 -0.033832 0
0.344979 -0.045560 0
0.379103 -0.057092 0
0.411149 -0.068346 0
0.441076 -0.079182 0
0.468887 -0.089454 0
0.494635 -0.099005 0
0.518412 -0.107692 0
0.540328 -0.115399 0
0.560499 -0.122037 0
0.579052 -0.127545 0
0.596107 -0.131901 0
0.611771 -0.135105 0
0.626142 -0.137176 0
0.639316 -0.138152 0
0.651382 -0.138087 0
0.662424 -0.137050 0
0.672516 -0.135121 0
0.681727 -0.132388 0
0.690118 -0.128942 0
0.697746 -0.124878 0
0.704664 -0.120291 0
0.710921 -0.115274 0
0.716561 -0.109919 0
0.721627 -0.104313 0
0.726156 -0.098537 0
0.730185 -0.092665 0
0.733747 -0.086766 0
0.736875 -0.080899 0
0.739598 -0.075117 0
0.741948 -0.069464 0
0.743950 -0.063978 0
0.745634 -0.058691 0
0.747025 -0.053626 0
0.748147 -0.048804 0
0.749025 -0.044237 0
0.749681 -0.039935 0
0.750137 -0.035903 0
0.750412 -0.032142 0
0.750527 -0.028650 0
0.750498 -0.025424 0
0.750342 -0.022457 0
0.750076 -0.019740 0
0.749712 -0.017264 0
0.749264 -0.015018 0
0.748744 -0.012989 0
0.748164 -0.011167 0
0.747533 -0.009537 0
0.746860 -0.008086 0
0.746153 -0.006803 0
0.745421 -0.005674 0
0.744668 -0.004687 0
0.743900 -0.003830 0
0.743124 -0.003091 0
0.742341 -0.002459 0
0.741558 -0.001923 0
0.740775 -0.001474 0
0.739999 -0.001103 0
0.739230 -0.000802 0
0.738473 -0.000562 0
0.737729 -0.000376 0
0.736998 -0.000238 0
0.736282 -0.000141 0
0.735583 -0.000080 0
0.734900 -0.000048 0
0.734235 -0.000042 0
0.733590 -0.000057 0
0.732965 -0.000088 0
0.732362 -0.000133 0
0.731783 -0.000187 0
0.731228 -0.000248 0
0.730700 -0.000310 0
0.730203 -0.000371 0
0.729739 -0.000426 0
0.729313 -0.000469 0
0.728932 -0.000492 0
0.728604 -0.000486 0
0.728339 -0.000436 0
0.728149 -0.000320 0
0.728051 -0.000122 0
0.728051 -0.000000 0
-0.500000 0.000000 0
-0.471708 0.000000 0
-0.430285 0.000000 0
-0.388995 0.000000 0
-0.352219 0.000000 0
-0.321413 0.000000 0
-0.297004 0.000000 0
-0.279218 0.000000 0
-0.268989 0.000000 0
-0.270288 -0.035492 0
0.000000 0.000001 0
0.064708 0.061243 0
0.134850 0.039688 0
0.198334 0.018381 0
0.255285 0.000167 0
0.307497 -0.015790 0
0.355876 -0.029171 0
0.400738 -0.040772 0
0.442001 -0.051315 0
0.479908 -0.061277 0
0.514925 -0.070854 0
0.547350 -0.080150 0
0.577252 -0.089232 0
0.604685 -0.098058 0
0.629731 -0.106527 0
0.652480 -0.114516 0
0.673042 -0.121891 0
0.691541 -0.128529 0
0.708113 -0.134322 0
0.722898 -0.139184 0
0.736037 -0.143058 0
0.747668 -0.145911 0
0.757921 -0.147733 0
0.766916 -0.148538 0
0.774768 -0.148355 0
0.781583 -0.147230 0
0.787460 -0.145224 0
0.792489 -0.142409 0
0.796751 -0.138865 0
0.800322 -0.134677 0
0.803270 -0.129933 0
0.805658 -0.124723 0
0.807542 -0.119136 0
0.808976 -0.113259 0
0.810006 -0.107174 0