# vtk DataFile Version 2.0
generated by CFD-lab course output (written by Tobias Neckel) 
ASCII

DATASET STRUCTURED_GRID
DIMENSIONS  101 21 1 
POINTS 2121 float

0.000000 0.000000 0
0.100000 0.000000 0
0.200000 0.000000 0
0.300000 0.000000 0
0.400000 0.000000 0
0.500000 0.000000 0
0.600000 0.000000 0
0.700000 0.000000 0
0.800000 0.000000 0
0.900000 0.000000 0
1.000000 0.000000 0
1.100000 0.000000 0
1.200000 0.000000 0
1.300000 0.000000 0
1.400000 0.000000 0
1.500000 0.000000 0
1.600000 0.000000 0
1.700000 0.000000 0
1.800000 0.000000 0
1.900000 0.000000 0
2.000000 0.000000 0
2.100000 0.000000 0
2.200000 0.000000 0
2.300000 0.000000 0
2.400000 0.000000 0
2.500000 0.000000 0
2.600000 0.000000 0
2.700000 0.000000 0
2.800000 0.000000 0
2.900000 0.000000 0
3.000000 0.000000 0
3.100000 0.000000 0
3.200000 0.000000 0
3.300000 0.000000 0
3.400000 0.000000 0
3.500000 0.000000 0
3.600000 0.000000 0
3.700000 0.000000 0
3.800000 0.000000 0
3.900000 0.000000 0
4.000000 0.000000 0
4.100000 0.000000 0
4.200000 0.000000 0
4.300000 0.000000 0
4.400000 0.000000 0
4.500000 0.000000 0
4.600000 0.000000 0
4.700000 0.000000 0
4.800000 0.000000 0
4.900000 0.000000 0
5.000000 0.000000 0
5.100000 0.000000 0
5.200000 0.000000 0
5.300000 0.000000 0
5.400000 0.000000 0
5.500000 0.000000 0
5.600000 0.000000 0
5.700000 0.000000 0
5.800000 0.000000 0
5.900000 0.000000 0
6.000000 0.000000 0
6.100000 0.000000 0
6.200000 0.000000 0
6.300000 0.000000 0
6.400000 0.000000 0
6.500000 0.000000 0
6.600000 0.000000 0
6.700000 0.000000 0
6.800000 0.000000 0
6.900000 0.000000 0
7.000000 0.000000 0
7.100000 0.000000 0
7.200000 0.000000 0
7.300000 0.000000 0
7.400000 0.000000 0
7.500000 0.000000 0
7.600000 0.000000 0
7.700000 0.000000 0
7.800000 0.000000 0
7.900000 0.000000 0
8.000000 0.000000 0
8.100000 0.000000 0
8.200000 0.000000 0
8.300000 0.000000 0
8.400000 0.000000 0
8.500000 0.000000 0
8.600000 0.000000 0
8.700000 0.000000 0
8.800000 0.000000 0
8.900000 0.000000 0
9.000000 0.000000 0
9.100000 0.000000 0
9.200000 0.000000 0
9.300000 0.000000 0
9.400000 0.000000 0
9.500000 0.000000 0
9.600000 0.000000 0
9.700000 0.000000 0
9.800000 0.000000 0
9.900000 0.000000 0
10.000000 0.000000 0
0.000000 0.100000 0
0.100000 0.100000 0
0.200000 0.100000 0
0.300000 0.100000 0
0.400000 0.100000 0
0.500000 0.100000 0
0.600000 0.100000 0
0.700000 0.100000 0
0.800000 0.100000 0
0.900000 0.100000 0
1.000000 0.100000 0
1.100000 0.100000 0
1.200000 0.100000 0
1.300000 0.100000 0
1.400000 0.100000 0
1.500000 0.100000 0
1.600000 0.100000 0
1.700000 0.100000 0
1.800000 0.100000 0
1.900000 0.100000 0
2.000000 0.100000 0
2.100000 0.100000 0
2.200000 0.100000 0
2.300000 0.100000 0
2.400000 0.100000 0
2.500000 0.100000 0
2.600000 0.100000 0
2.700000 0.100000 0
2.800000 0.100000 0
2.900000 0.100000 0
3.000000 0.100000 0
3.100000 0.100000 0
3.200000 0.100000 0
3.300000 0.100000 0
3.400000 0.100000 0
3.500000 0.100000 0
3.600000 0.100000 0
3.700000 0.100000 0
3.800000 0.100000 0
3.900000 0.100000 0
4.000000 0.100000 0
4.100000 0.100000 0
4.200000 0.100000 0
4.300000 0.100000 0
4.400000 0.100000 0
4.500000 0.100000 0
4.600000 0.100000 0
4.700000 0.100000 0
4.800000 0.100000 0
4.900000 0.100000 0
5.000000 0.100000 0
5.100000 0.100000 0
5.200000 0.100000 0
5.300000 0.100000 0
5.400000 0.100000 0
5.500000 0.100000 0
5.600000 0.100000 0
5.700000 0.100000 0
5.800000 0.100000 0
5.900000 0.100000 0
6.000000 0.100000 0
6.100000 0.100000 0
6.200000 0.100000 0
6.300000 0.100000 0
6.400000 0.100000 0
6.500000 0.100000 0
6.600000 0.100000 0
6.700000 0.100000 0
6.800000 0.100000 0
6.900000 0.100000 0
7.000000 0.100000 0
7.100000 0.100000 0
7.200000 0.100000 0
7.300000 0.100000 0
7.400000 0.100000 0
7.500000 0.100000 0
7.600000 0.100000 0
7.700000 0.100000 0
7.800000 0.100000 0
7.900000 0.100000 0
8.000000 0.100000 0
8.100000 0.100000 0
8.200000 0.100000 0
8.300000 0.100000 0
8.400000 0.100000 0
8.500000 0.100000 0
8.600000 0.100000 0
8.700000 0.100000 0
8.800000 0.100000 0
8.900000 0.100000 0
9.000000 0.100000 0
9.100000 0.100000 0
9.200000 0.100000 0
9.300000 0.100000 0
9.400000 0.100000 0
9.500000 0.100000 0
9.600000 0.100000 0
9.700000 0.100000 0
9.800000 0.100000 0
9.900000 0.100000 0
10.000000 0.100000 0
0.000000 0.200000 0
0.100000 0.200000 0
0.200000 0.200000 0
0.300000 0.200000 0
0.400000 0.200000 0
0.500000 0.200000 0
0.600000 0.200000 0
0.700000 0.200000 0
0.800000 0.200000 0
0.900000 0.200000 0
1.000000 0.200000 0
1.100000 0.200000 0
1.200000 0.200000 0
1.300000 0.200000 0
1.400000 0.200000 0
1.500000 0.200000 0
1.600000 0.200000 0
1.700000 0.200000 0
1.800000 0.200000 0
1.900000 0.200000 0
2.000000 0.200000 0
2.100000 0.200000 0
2.200000 0.200000 0
2.300000 0.200000 0
2.400000 0.200000 0
2.500000 0.200000 0
2.600000 0.200000 0
2.700000 0.200000 0
2.800000 0.200000 0
2.900000 0.200000 0
3.000000 0.200000 0
3.100000 0.200000 0
3.200000 0.200000 0
3.300000 0.200000 0
3.400000 0.200000 0
3.500000 0.200000 0
3.600000 0.200000 0
3.700000 0.200000 0
3.800000 0.200000 0
3.900000 0.200000 0
4.000000 0.200000 0
4.100000 0.200000 0
4.200000 0.200000 0
4.300000 0.200000 0
4.400000 0.200000 0
4.500000 0.200000 0
4.600000 0.200000 0
4.700000 0.200000 0
4.800000 0.200000 0
4.900000 0.200000 0
5.000000 0.200000 0
5.100000 0.200000 0
5.200000 0.200000 0
5.300000 0.200000 0
5.400000 0.200000 0
5.500000 0.200000 0
5.600000 0.200000 0
5.700000 0.200000 0
5.800000 0.200000 0
5.900000 0.200000 0
6.000000 0.200000 0
6.100000 0.200000 0
6.200000 0.200000 0
6.300000 0.200000 0
6.400000 0.200000 0
6.500000 0.200000 0
6.600000 0.200000 0
6.700000 0.200000 0
6.800000 0.200000 0
6.900000 0.200000 0
7.000000 0.200000 0
7.100000 0.200000 0
7.200000 0.200000 0
7.300000 0.200000 0
7.400000 0.200000 0
7.500000 0.200000 0
7.600000 0.200000 0
7.700000 0.200000 0
7.800000 0.200000 0
7.900000 0.200000 0
8.000000 0.200000 0
8.100000 0.200000 0
8.200000 0.200000 0
8.300000 0.200000 0
8.400000 0.200000 0
8.500000 0.200000 0
8.600000 0.200000 0
8.700000 0.200000 0
8.800000 0.200000 0
8.900000 0.200000 0
9.000000 0.200000 0
9.100000 0.200000 0
9.200000 0.200000 0
9.300000 0.200000 0
9.400000 0.200000 0
9.500000 0.200000 0
9.600000 0.200000 0
9.700000 0.200000 0
9.800000 0.200000 0
9.900000 0.200000 0
10.000000 0.200000 0
0.000000 0.300000 0
0.100000 0.300000 0
0.200000 0.300000 0
0.300000 0.300000 0
0.400000 0.300000 0
0.500000 0.300000 0
0.600000 0.300000 0
0.700000 0.300000 0
0.800000 0.300000 0
0.900000 0.300000 0
1.000000 0.300000 0
1.100000 0.300000 0
1.200000 0.300000 0
1.300000 0.300000 0
1.400000 0.300000 0
1.500000 0.300000 0
1.600000 0.300000 0
1.700000 0.300000 0
1.800000 0.300000 0
1.900000 0.300000 0
2.000000 0.300000 0
2.100000 0.300000 0
2.200000 0.300000 0
2.300000 0.300000 0
2.400000 0.300000 0
2.500000 0.300000 0
2.600000 0.300000 0
2.700000 0.300000 0
2.800000 0.300000 0
2.900000 0.300000 0
3.000000 0.300000 0
3.100000 0.300000 0
3.200000 0.300000 0
3.300000 0.300000 0
3.400000 0.300000 0
3.500000 0.300000 0
3.600000 0.300000 0
3.700000 0.300000 0
3.800000 0.300000 0
3.900000 0.300000 0
4.000000 0.300000 0
4.100000 0.300000 0
4.200000 0.300000 0
4.300000 0.300000 0
4.400000 0.300000 0
4.500000 0.300000 0
4.600000 0.300000 0
4.700000 0.300000 0
4.800000 0.300000 0
4.900000 0.300000 0
5.000000 0.300000 0
5.100000 0.300000 0
5.200000 0.300000 0
5.300000 0.300000 0
5.400000 0.300000 0
5.500000 0.300000 0
5.600000 0.300000 0
5.700000 0.300000 0
5.800000 0.300000 0
5.900000 0.300000 0
6.000000 0.300000 0
6.100000 0.300000 0
6.200000 0.300000 0
6.300000 0.300000 0
6.400000 0.300000 0
6.500000 0.300000 0
6.600000 0.300000 0
6.700000 0.300000 0
6.800000 0.300000 0
6.900000 0.300000 0
7.000000 0.300000 0
7.100000 0.300000 0
7.200000 0.300000 0
7.300000 0.300000 0
7.400000 0.300000 0
7.500000 0.300000 0
7.600000 0.300000 0
7.700000 0.300000 0
7.800000 0.300000 0
7.900000 0.300000 0
8.000000 0.300000 0
8.100000 0.300000 0
8.200000 0.300000 0
8.300000 0.300000 0
8.400000 0.300000 0
8.500000 0.300000 0
8.600000 0.300000 0
8.700000 0.300000 0
8.800000 0.300000 0
8.900000 0.300000 0
9.000000 0.300000 0
9.100000 0.300000 0
9.200000 0.300000 0
9.300000 0.300000 0
9.400000 0.300000 0
9.500000 0.300000 0
9.600000 0.300000 0
9.700000 0.300000 0
9.800000 0.300000 0
9.900000 0.300000 0
10.000000 0.300000 0
0.000000 0.400000 0
0.100000 0.400000 0
0.200000 0.400000 0
0.300000 0.400000 0
0.400000 0.400000 0
0.500000 0.400000 0
0.600000 0.400000 0
0.700000 0.400000 0
0.800000 0.400000 0
0.900000 0.400000 0
1.000000 0.400000 0
1.100000 0.400000 0
1.200000 0.400000 0
1.300000 0.400000 0
1.400000 0.400000 0
1.500000 0.400000 0
1.600000 0.400000 0
1.700000 0.400000 0
1.800000 0.400000 0
1.900000 0.400000 0
2.000000 0.400000 0
2.100000 0.400000 0
2.200000 0.400000 0
2.300000 0.400000 0
2.400000 0.400000 0
2.500000 0.400000 0
2.600000 0.400000 0
2.700000 0.400000 0
2.800000 0.400000 0
2.900000 0.400000 0
3.000000 0.400000 0
3.100000 0.400000 0
3.200000 0.400000 0
3.300000 0.400000 0
3.400000 0.400000 0
3.500000 0.400000 0
3.600000 0.400000 0
3.700000 0.400000 0
3.800000 0.400000 0
3.900000 0.400000 0
4.000000 0.400000 0
4.100000 0.400000 0
4.200000 0.400000 0
4.300000 0.400000 0
4.400000 0.400000 0
4.500000 0.400000 0
4.600000 0.400000 0
4.700000 0.400000 0
4.800000 0.400000 0
4.900000 0.400000 0
5.000000 0.400000 0
5.100000 0.400000 0
5.200000 0.400000 0
5.300000 0.400000 0
5.400000 0.400000 0
5.500000 0.400000 0
5.600000 0.400000 0
5.700000 0.400000 0
5.800000 0.400000 0
5.900000 0.400000 0
6.000000 0.400000 0
6.100000 0.400000 0
6.200000 0.400000 0
6.300000 0.400000 0
6.400000 0.400000 0
6.500000 0.400000 0
6.600000 0.400000 0
6.700000 0.400000 0
6.800000 0.400000 0
6.900000 0.400000 0
7.000000 0.400000 0
7.100000 0.400000 0
7.200000 0.400000 0
7.300000 0.400000 0
7.400000 0.400000 0
7.500000 0.400000 0
7.600000 0.400000 0
7.700000 0.400000 0
7.800000 0.400000 0
7.900000 0.400000 0
8.000000 0.400000 0
8.100000 0.400000 0
8.200000 0.400000 0
8.300000 0.400000 0
8.400000 0.400000 0
8.500000 0.400000 0
8.600000 0.400000 0
[...]
POINT_DATA 2121 

VECTORS velocity float
0.000000 0.000000 0
0.000000 0.000000 0
0.000000 0.000000 0
0.000000 0.000000 0
0.000000 0.000000 0
0.000000 0.000000 0
0.000000 0.000000 0
0.000000 0.000000 0
0.000000 0.000000 0
0.000000 0.000000 0
0.000000 0.000000 0
-0.000001 0.000000 0
-0.000004 0.000000 0
-0.000006 0.000000 0
-0.000005 0.000000 0
-0.000000 0.000000 0
0.000006 0.000000 0
0.000009 0.000000 0
0.000008 0.000000 0
0.000001 0.000000 0
-0.000008 0.000000 0
-0.000012 0.000000 0
-0.000009 0.000000 0
0.000000 0.000000 0
0.000010 0.000000 0
0.000014 0.000000 0
0.000010 0.000000 0
0.000002 0.000000 0
-0.000005 0.000000 0
-0.000007 0.000000 0
-0.000003 0.000000 0
0.000004 0.000000 0
0.000008 0.000000 0
0.000008 0.000000 0
0.000004 0.000000 0
-0.000000 0.000000 0
-0.000003 0.000000 0
-0.000003 0.000000 0
-0.000002 0.000000 0
-0.000001 0.000000 0
-0.000001 0.000000 0
-0.000003 0.000000 0
-0.000004 0.000000 0
-0.000005 0.000000 0
-0.000005 0.000000 0
-0.000006 0.000000 0
-0.000006 0.000000 0
-0.000007 0.000000 0
-0.000007 0.000000 0
-0.000008 0.000000 0
-0.000008 0.000000 0
-0.000008 0.000000 0
-0.000008 0.000000 0
-0.000009 0.000000 0
-0.000009 0.000000 0
-0.000009 0.000000 0
-0.000009 0.000000 0
-0.000009 0.000000 0
-0.000009 0.000000 0
-0.000009 0.000000 0
-0.000009 0.000000 0
-0.000010 0.000000 0
-0.000010 0.000000 0
-0.000010 0.000000 0
-0.000010 0.000000 0
-0.000010 0.000000 0
-0.000010 0.000000 0
-0.000010 0.000000 0
-0.000010 0.000000 0
-0.000010 0.000000 0
-0.000010 0.000000 0
-0.000009 0.000000 0
-0.000009 0.000000 0
-0.000009 0.000000 0
-0.000009 0.000000 0
-0.000009 0.000000 0
-0.000009 0.000000 0
-0.000009 0.000000 0
-0.000009 0.000000 0
-0.000009 0.000000 0
-0.000009 0.000000 0
-0.000009 0.000000 0
-0.000009 0.000000 0
-0.000009 0.000000 0
-0.000009 0.000000 0
-0.000009 0.000000 0
-0.000009 0.000000 0
-0.000009 0.000000 0
-0.000009 0.000000 0
-0.000009 0.000000 0
-0.000009 0.000000 0
-0.000009 0.000000 0
-0.000009 0.000000 0
-0.000009 0.000000 0
-0.000009 0.000000 0
-0.000009 0.000000 0
-0.000009 0.000000 0
-0.000009 0.000000 0
-0.000009 0.000000 0
-0.000009 0.000000 0
-0.000009 0.000000 0
0.000000 0.000000 0
0.000000 0.000000 0
0.000000 0.000000 0
0.000000 0.000000 0
0.000000 0.000000 0
0.000000 0.000000 0
0.000000 0.000000 0
0.000000 0.000000 0
0.000000 0.000000 0
0.000000 -0.000184 0
0.000000 -0.000000 0
-0.002147 0.001745 0
-0.008385 0.003947 0
-0.016833 0.005071 0
-0.026051 0.005425 0
-0.035339 0.005467 0
-0.044488 0.005462 0
-0.053512 0.005510 0
-0.062496 0.005630 0
-0.071512 0.005808 0
-0.080590 0.006015 0
-0.089687 0.006203 0
-0.098675 0.006305 0
-0.107328 0.006243 0
-0.115328 0.005945 0
-0.122298 0.005369 0
-0.127854 0.004514 0
-0.131672 0.003416 0
-0.133495 0.002126 0
-0.133166 0.000734 0
-0.130653 -0.000686 0
-0.126075 -0.002096 0
-0.119634 -0.003430 0
-0.111580 -0.004627 0
-0.102161 -0.005678 0
-0.091576 -0.006580 0
-0.080039 -0.007301 0
-0.067804 -0.007815 0
-0.055135 -0.008146 0
-0.042234 -0.008369 0
-0.029188 -0.008470 0
-0.016198 -0.008390 0
-0.003415 -0.008225 0
0.008939 -0.007996 0
0.020776 -0.007642 0
0.032029 -0.007204 0
0.042647 -0.006728 0
0.052601 -0.006243 0
0.061878 -0.005757 0
0.070472 -0.005275 0
0.078391 -0.004803 0
0.085646 -0.004347 0
0.092257 -0.003911 0
0.098251 -0.003498 0
0.103656 -0.003111 0
0.108505 -0.002750 0
0.112834 -0.002418 0
0.116677 -0.002113 0
0.120073 -0.001836 0
0.123058 -0.001586 0
0.125668 -0.001362 0
0.127938 -0.001162 0
0.129902 -0.000986 0
0.131593 -0.000830 0
0.133040 -0.000695 0
0.134272 -0.000577 0
0.135314 -0.000476 0
0.136193 -0.000390 0
0.136928 -0.000317 0
0.137541 -0.000256 0
0.138049 -0.000205 0
0.138470 -0.000164 0
0.138816 -0.000131 0
0.139102 -0.000104 0
0.139338 -0.000084 0
0.139534 -0.000069 0
0.139699 -0.000059 0
0.139841 -0.000052 0
0.139965 -0.000048 0
0.140077 -0.000046 0
0.140181 -0.000047 0
0.140281 -0.000049 0
0.140380 -0.000053 0
0.140481 -0.000057 0
0.140585 -0.000062 0
0.140693 -0.000067 0
0.140807 -0.000072 0
0.140926 -0.000078 0
0.141051 -0.000082 0
0.141182 -0.000086 0
0.141317 -0.000089 0
0.141456 -0.000091 0
0.141596 -0.000092 0
0.141735 -0.000091 0
0.141871 -0.000087 0
0.141999 -0.000080 0
0.142115 -0.000071 0
0.142215 -0.000058 0
0.142292 -0.000043 0
0.142344 -0.000032 0
0.142378 -0.000029 0
0.000000 0.000000 0
0.000000 0.000000 0
0.000000 0.000000 0
0.000000 0.000000 0
0.000000 0.000000 0
0.000000 0.000000 0
0.000000 0.000000 0
0.000000 0.000000 0
0.000000 0.000000 0
0.000000 -0.002134 0
0.000000 -0.000001 0
-0.005632 0.008360 0
-0.017581 0.014665 0
-0.032246 0.017651 0
-0.047562 0.018501 0
-0.062600 0.018442 0
-0.077073 0.018179 0
-0.090974 0.018005 0
-0.104382 0.017981 0
-0.117354 0.018063 0
-0.129880 0.018143 0
-0.141852 0.018065 0
-0.153045 0.017638 0
-0.163105 0.016662 0
-0.171556 0.014977 0
-0.177857 0.012520 0
-0.181496 0.009353 0
-0.182103 0.005613 0
-0.179421 0.001470 0
-0.173619 -0.002855 0
-0.164938 -0.007094 0
-0.153734 -0.011020 0
-0.140379 -0.014501 0
-0.125267 -0.017485 0
-0.108752 -0.020019 0
-0.091092 -0.022137 0
-0.072550 -0.023784 0
-0.053401 -0.024913 0
-0.033895 -0.025579 0
-0.014260 -0.025956 0
0.005166 -0.026046 0
0.024250 -0.025783 0
0.042887 -0.025147 0
0.060857 -0.024201 0
0.078085 -0.023100 0
0.094521 -0.021881 0
0.110118 -0.020583 0
0.124837 -0.019241 0
0.138651 -0.017882 0
0.151550 -0.016524 0
0.163537 -0.015184 0
0.174624 -0.013878 0
0.184829 -0.012616 0
0.194182 -0.011410 0
0.202713 -0.010265 0
0.210462 -0.009189 0
0.217467 -0.008183 0
0.223773 -0.007251 0
0.229425 -0.006392 0
0.234468 -0.005606 0
0.238947 -0.004892 0
0.242909 -0.004246 0
0.246398 -0.003666 0
0.249456 -0.003149 0
0.252126 -0.002691 0
0.254447 -0.002287 0
0.256456 -0.001933 0
0.258187 -0.001626 0
0.259675 -0.001360 0
0.260948 -0.001133 0
0.262035 -0.000941 0
0.262960 -0.000779 0
0.263747 -0.000644 0
0.264417 -0.000534 0
0.264987 -0.000445 0
0.265474 -0.000374 0
0.265894 -0.000319 0
0.266259 -0.000278 0
0.266579 -0.000248 0
0.266865 -0.000229 0
0.267126 -0.000217 0
0.267367 -0.000212 0
0.267596 -0.000213 0
0.267817 -0.000217 0
0.268034 -0.000225 0
0.268249 -0.000235 0
0.268467 -0.000246 0
0.268688 -0.000258 0
0.268912 -0.000269 0
0.269142 -0.000279 0
0.269375 -0.000287 0
0.269612 -0.000292 0
0.269849 -0.000293 0
0.270085 -0.000288 0
0.270315 -0.000277 0
0.270535 -0.000258 0
0.270738 -0.000229 0
0.270917 -0.000190 0
0.271062 -0.000143 0
0.271166 -0.000100 0
0.271228 -0.000083 0
0.000000 0.000000 0
0.000000 0.000000 0
0.000000 0.000000 0
0.000000 0.000000 0
0.000000 0.000000 0
0.000000 0.000000 0
0.000000 0.000000 0
0.000000 0.000000 0
0.000000 0.000000 0
0.000000 -0.005803 0
0.000000 -0.000002 0
-0.008623 0.019306 0
-0.024825 0.030554 0
-0.043210 0.035054 0
-0.061346 0.035788 0
-0.078352 0.034987 0
-0.094023 0.033836 0
-0.108405 0.032806 0
-0.121587 0.031987 0
-0.133606 0.031283 0
-0.144420 0.030503 0
-0.153906 0.029375 0
-0.161807 0.027575 0
-0.167751 0.024767 0
-0.171205 0.020694 0
-0.171555 0.015290 0
-0.168247 0.008737 0
-0.161024 0.001324 0
-0.150559 -0.006362 0
-0.137430 -0.013742 0
-0.122014 -0.020563 0
-0.104749 -0.026654 0
-0.085927 -0.031904 0
-0.065899 -0.036265 0
-0.044918 -0.039864 0
-0.023342 -0.042789 0
-0.001483 -0.044994 0
0.020487 -0.046471 0
0.042430 -0.047290 0
0.064170 -0.047433 0
0.085419 -0.046985 0
0.106082 -0.046117 0
0.126062 -0.044837 0
0.145362 -0.043199 0
0.163898 -0.041310 0
0.181607 -0.039241 0
0.198448 -0.037048 0
0.214387 -0.034780 0
0.229406 -0.032475 0
0.243496 -0.030166 0
0.256661 -0.027881 0
0.268912 -0.025644 0
0.280269 -0.023474 0
0.290756 -0.021387 0
0.300403 -0.019395 0
0.309245 -0.017509 0
0.317318 -0.015734 0
0.324661 -0.014076 0
0.331316 -0.012535 0
0.337326 -0.011113 0
0.342732 -0.009808 0
0.347578 -0.008618 0
0.351905 -0.007538 0
0.355756 -0.006564 0
0.359171 -0.005690 0
0.362188 -0.004912 0
0.364846 -0.004222 0
0.367179 -0.003615 0
0.369221 -0.003083 0
0.371004 -0.002621 0
0.372558 -0.002223 0
0.373908 -0.001882 0
0.375081 -0.001592 0
0.376100 -0.001349 0
0.376985 -0.001147 0
0.377756 -0.000982 0
0.378430 -0.000848 0
0.379022 -0.000742 0
0.379546 -0.000660 0
0.380014 -0.000598 0
0.380437 -0.000554 0
0.380823 -0.000525 0
0.381181 -0.000507 0
0.381518 -0.000500 0
0.381839 -0.000500 0
0.382148 -0.000506 0
0.382451 -0.000516 0
0.382750 -0.000528 0
0.383047 -0.000542 0
0.383343 -0.000555 0
0.383639 -0.000565 0
0.383936 -0.000571 0
0.384232 -0.000571 0
0.384524 -0.000562 0
0.384811 -0.000543 0
0.385086 -0.000509 0
0.385345 -0.000458 0
0.385577 -0.000387 0
0.385772 -0.000297 0
0.385917 -0.000204 0
0.386000 -0.000160 0
0.000000 0.000000 0
0.000000 0.000000 0
0.000000 0.000000 0
0.000000 0.000000 0
0.000000 0.000000 0
0.000000 0.000000 0
0.000000 0.000000 0
0.000000 0.000000 0
0.000000 0.000000 0
0.000000 -0.010743 0
0.000000 -0.000002 0
-0.010712 0.033166 0
-0.029044 0.049248 0
-0.048161 0.054177 0
-0.065601 0.053653 0
-0.080769 0.051124 0
-0.093695 0.048226 0
-0.104553 0.045549 0
-0.113488 0.043158 0
-0.120524 0.040880 0
-0.125585 0.038442 0
-0.128554 0.035464 0
-0.129143 0.031499 0
-0.126983 0.026064 0
-0.121551 0.018770 0
-0.112079 0.009541 0
-0.098710 -0.001199 0
-0.082546 -0.012085 0
-0.064469 -0.022121 0
-0.044888 -0.031392 0
-0.024284 -0.039771 0
-0.002899 -0.047111 0
0.019074 -0.053361 0
0.041474 -0.058505 0
0.064143 -0.062584 0
0.086810 -0.065575 0
0.109251 -0.067614 0
0.131343 -0.068829 0
0.152987 -0.069266 0
0.174076 -0.068950 0
0.194603 -0.067963 0
0.214466 -0.066431 0
0.233591 -0.064432 0
0.251962 -0.062041 0
0.269544 -0.059349 0
0.286302 -0.056435 0
0.302212 -0.053367 0
0.317259 -0.050204 0
0.331437 -0.046995 0
0.344747 -0.043783 0
0.357200 -0.040605 0
0.368811 -0.037491 0
0.379603 -0.034465 0
0.389600 -0.031549 0
0.398832 -0.028759 0
0.407331 -0.026108 0
0.415132 -0.023604 0
0.422268 -0.021254 0
0.428777 -0.019061 0
0.434696 -0.017027 0
0.440063 -0.015149 0
0.444913 -0.013424 0
0.449283 -0.011850 0
0.453210 -0.010420 0
0.456728 -0.009128 0
0.459870 -0.007967 0
0.462670 -0.006929 0
0.465157 -0.006006 0
0.467362 -0.005191 0
0.469311 -0.004474 0
0.471032 -0.003849 0
0.472549 -0.003308 0
0.473884 -0.002841 0
0.475059 -0.002443 0
0.476093 -0.002106 0
0.477004 -0.001824 0
0.477808 -0.001590 0
0.478520 -0.001399 0
0.479153 -0.001246 0
0.479720 -0.001124 0
0.480231 -0.001031 0
0.480696 -0.000962 0
0.481122 -0.000913 0
0.481518 -0.000880 0
0.481889 -0.000861 0
0.482241 -0.000853 0
0.482578 -0.000853 0
0.482905 -0.000858 0
0.483224 -0.000867 0
0.483538 -0.000877 0
0.483848 -0.000885 0
0.484156 -0.000889 0
0.484461 -0.000886 0
0.484762 -0.000873 0
0.485058 -0.000845 0
0.485346 -0.000797 0
0.485620 -0.000725 0
0.485871 -0.000623 0
0.486089 -0.000488 0
0.486255 -0.000333 0
0.486349 -0.000254 0
0.000000 0.000000 0
0.000000 0.000000 0
0.000000 0.000000 0
0.000000 0.000000 0
0.000000 0.000000 0
0.000000 0.000000 0
0.000000 0.000000 0
0.000000 0.000000 0
0.000000 0.000000 0
0.000000 -0.016499 0
0.000000 -0.000002 0
-0.012144 0.048332 0
-0.030173 0.068001 0
-0.046542 0.071617 0
-0.059455 0.068405 0
-0.068964 0.063082 0
-0.075452 0.057607 0
-0.079244 0.052576 0
-0.080568 0.047936 0
-0.079413 0.043370 0
-0.075577 0.038538 0
-0.068935 0.032947 0
-0.059074 0.026015 0
-0.045239 0.017173 0
-0.027465 0.005773 0
-0.006950 -0.007573 0
0.015135 -0.020812 0
0.037767 -0.032921 0
0.060850 -0.044013 0
0.084224 -0.053920 0
0.107567 -0.062552 0
0.130781 -0.070020 0
0.153724 -0.076289 0
0.176364 -0.081345 0
0.198587 -0.085205 0
0.220346 -0.087899 0
0.241597 -0.089528 0
0.262242 -0.090209 0
0.282212 -0.090027 0
0.301458 -0.089055 0
0.319981 -0.087380 0
0.337750 -0.085109 0
0.354737 -0.082338 0
0.370932 -0.079156 0
0.386328 -0.075654 0
0.400919 -0.071913 0
0.414701 -0.068010 0
0.427679 -0.064009 0
0.439859 -0.059967 0
0.451255 -0.055934 0
0.461885 -0.051950 0
0.471772 -0.048052 0
0.480942 -0.044267 0
0.489422 -0.040621 0
0.497242 -0.037132 0
0.504436 -0.033813 0
0.511034 -0.030676 0
0.517071 -0.027726 0
0.522580 -0.024968 0
0.527593 -0.022403 0
0.532144 -0.020030 0
0.536264 -0.017843 0
0.539985 -0.015840 0
0.543336 -0.014013 0
0.546347 -0.012356 0
0.549046 -0.010859 0
0.551458 -0.009514 0
0.553610 -0.008311 0
0.555525 -0.007242 0
0.557226 -0.006297 0
0.558734 -0.005465 0
0.560068 -0.004738 0
0.561247 -0.004107 0
0.562287 -0.003563 0
0.563206 -0.003097 0
0.564017 -0.002702 0
0.564734 -0.002369 0
0.565368 -0.002093 0
0.565931 -0.001865 0
0.566433 -0.001681 0
0.566883 -0.001535 0
0.567289 -0.001421 0
0.567658 -0.001335 0
0.567997 -0.001272 0
0.568311 -0.001228 0
0.568605 -0.001201 0
0.568883 -0.001186 0
0.569150 -0.001180 0
0.569408 -0.001180 0
0.569660 -0.001184 0
0.569908 -0.001188 0
0.570154 -0.001189 0
0.570399 -0.001182 0
0.570643 -0.001165 0
0.570886 -0.001132 0
0.571127 -0.001076 0
0.571362 -0.000989 0
0.571585 -0.000862 0
0.571787 -0.000687 0
0.571948 -0.000469 0
0.572042 -0.000353 0
0.000000 0.000000 0
0.000000 0.000000 0
0.000000 0.000000 0
0.000000 0.000000 0
0.000000 0.000000 0
0.000000 0.000000 0
0.000000 0.000000 0
0.000000 0.000000 0
0.000000 0.000000 0
0.000000 -0.022871 0
0.000000 -0.000002 0
-0.013453 0.063321 0
-0.027985 0.083648 0
-0.037009 0.083466 0
-0.040739 0.076081 0
-0.040377 0.067117 0
-0.036651 0.058489 0
-0.029826 0.050642 0
-0.020181 0.043308 0
-0.007673 0.035884 0
0.008129 0.027974 0
0.027827 0.018977 0
0.051135 0.007811 0
0.077205 -0.005554 0
0.104830 -0.019541 0
0.132377 -0.033082 0
0.159033 -0.045928 0
0.184981 -0.057798 0
0.210223 -0.068568 0
0.234683 -0.078103 0
0.258427 -0.086331 0
0.281410 -0.093280 0
0.303582 -0.098958 0
0.324942 -0.103377 0
0.345474 -0.106569 0
0.365191 -0.108586 0
0.384103 -0.109512 0
0.402199 -0.109447 0
0.419468 -0.108488 0
0.435909 -0.106726 0
0.451536 -0.104260 0
0.466356 -0.101190 0
0.480378 -0.097618 0
0.493614 -0.093637 0
0.506077 -0.089341 0
0.517780 -0.084813 0
0.528741 -0.080132 0
0.538976 -0.075366 0
0.548506 -0.070576 0
0.557352 -0.065815 0
0.565541 -0.061128 0
0.573099 -0.056552 0
0.580056 -0.052119 0
0.586440 -0.047855 0
0.592283 -0.043778 0
0.597616 -0.039905 0
0.602470 -0.036245 0
0.606876 -0.032805 0
0.610865 -0.029588 0
0.614465 -0.026596 0
0.617706 -0.023824 0
0.620616 -0.021270 0
0.623220 -0.018927 0
0.625544 -0.016787 0
0.627612 -0.014843 0
0.629447 -0.013083 0
0.631070 -0.011498 0
0.632500 -0.010078 0
0.633757 -0.008811 0
0.634858 -0.007688 0
0.635820 -0.006696 0
0.636656 -0.005826 0
0.637381 -0.005066 0
0.638008 -0.004408 0
0.638548 -0.003841 0
0.639011 -0.003357 0
0.639409 -0.002947 0
0.639748 -0.002602 0
0.640038 -0.002316 0
0.640286 -0.002082 0
0.640497 -0.001892 0
0.640679 -0.001742 0
0.640836 -0.001626 0
0.640973 -0.001538 0
0.641093 -0.001474 0
0.641202 -0.001431 0
0.641302 -0.001403 0
0.641396 -0.001388 0
0.641486 -0.001383 0
0.641576 -0.001383 0
0.641667 -0.001385 0
0.641761 -0.001385 0
0.641860 -0.001381 0
0.641965 -0.001365 0
0.642079 -0.001334 0
0.642201 -0.001279 0
0.642331 -0.001190 0
0.642468 -0.001054 0
0.642605 -0.000856 0
0.642729 -0.000593 0
0.642814 -0.000447 0
0.000000 0.000000 0
0.000000 0.000000 0
0.000000 0.000000 0
0.000000 0.000000 0
0.000000 0.000000 0
0.000000 0.000000 0
0.000000 0.000000 0
0.000000 0.000000 0
0.000000 0.000000 0
0.000000 -0.029936 0
0.000000 -0.000002 0
-0.014145 0.076301 0
-0.018902 0.091562 0
-0.013189 0.084379 0
-0.001222 0.071775 0
0.014228 0.058986 0
0.032518 0.047037 0
0.053728 0.036084 0
0.078272 0.025768 0
0.105959 0.015060 0
0.136103 0.003052 0
0.168106 -0.010044 0
0.201081 -0.023359 0
0.233564 -0.036536 0
0.264566 -0.049424 0
0.294066 -0.061798 0
0.321998 -0.073422 0
0.348415 -0.084103 0
0.373371 -0.093705 0
0.396910 -0.102121 0
0.419133 -0.109286 0
0.440106 -0.115188 0
0.459880 -0.119834 0
0.478510 -0.123243 0
0.496048 -0.125455 0
0.512549 -0.126527 0
0.528066 -0.126539 0
0.542640 -0.125579 0
0.556311 -0.123744 0
0.569116 -0.121128 0
0.581092 -0.117832 0
0.592274 -0.113956 0
0.602695 -0.109600 0
0.612387 -0.104859 0
0.621379 -0.099825 0
0.629701 -0.094583 0
0.637381 -0.089210 0
0.644448 -0.083778 0
0.650930 -0.078348 0
0.656854 -0.072974 0
0.662251 -0.067702 0
0.667150 -0.062571 0
0.671579 -0.057613 0
0.675568 -0.052853 0
0.679147 -0.048313 0
0.682344 -0.044005 0
0.685187 -0.039941 0
0.687703 -0.036126 0
0.689919 -0.032562 0
0.691859 -0.029250 0
0.693548 -0.026185 0
0.695008 -0.023362 0
0.696260 -0.020773 0
0.697325 -0.018411 0
0.698222 -0.016264 0
0.698968 -0.014321 0
0.699579 -0.012572 0
0.700071 -0.011004 0
0.700456 -0.009605 0
0.700749 -0.008364 0
0.700959 -0.007268 0
0.701099 -0.006305 0
0.701177 -0.005464 0
0.701201 -0.004735 0
0.701181 -0.004106 0
0.701122 -0.003568 0
0.701031 -0.003111 0
0.700913 -0.002727 0
0.700773 -0.002408 0
0.700617 -0.002146 0
0.700447 -0.001933 0
0.700268 -0.001765 0
0.700081 -0.001633 0
0.699892 -0.001535 0
0.699701 -0.001463 0
0.699511 -0.001414 0
0.699324 -0.001385 0
0.699143 -0.001370 0
0.698968 -0.001366 0
0.698802 -0.001370 0
0.698647 -0.001378 0
0.698505 -0.001387 0
0.698377 -0.001392 0
0.698267 -0.001390 0
0.698177 -0.001373 0
0.698112 -0.001333 0
0.698073 -0.001261 0
0.698064 -0.001141 0
0.698088 -0.000953 0
0.698142 -0.000683 0
0.698208 -0.000527 0
0.000000 0.000000 0
0.000000 0.000000 0
0.000000 0.000000 0
0.000000 0.000000 0
0.000000 0.000000 0
0.000000 0.000000 0
0.000000 0.000000 0
0.000000 0.000000 0
0.000000 0.000000 0
0.000000 -0.037000 0
0.000000 -0.000001 0
-0.005591 0.082209 0
0.015027 0.082698 0
0.046308 0.065794 0
0.081090 0.048665 0
0.118025 0.033366 0
0.156014 0.018968 0
0.194422 0.004865 0
0.233119 -0.008934 0
0.271836 -0.021942 0
0.309887 -0.034158 0
0.346276 -0.045988 0
0.380629 -0.057649 0
0.412894 -0.069057 0
0.443030 -0.080069 0
0.471041 -0.090532 0
0.496979 -0.100279 0
0.520935 -0.109159 0
0.543012 -0.117053 0
0.563321 -0.123866 0
0.581992 -0.129538 0
0.599148 -0.134042 0
0.614902 -0.137373 0
0.629357 -0.139549 0
0.642608 -0.140607 0
0.654743 -0.140603 0
0.665847 -0.139606 0
0.675997 -0.137699 0
0.685261 -0.134970 0
0.693703 -0.131512 0
0.701381 -0.127423 0
0.708349 -0.122798 0
0.714656 -0.117734 0
0.720346 -0.112325 0
0.725463 -0.106660 0
0.730044 -0.100820 0
0.734126 -0.094884 0
0.737743 -0.088919 0
0.740928 -0.082987 0
0.743712 -0.077141 0
0.746123 -0.071427 0
0.748192 -0.065884 0
0.749944 -0.060542 0
0.751407 -0.055428 0
0.752605 -0.050559 0
0.753563 -0.045949 0
0.754304 -0.041609 0
0.754849 -0.037542 0
0.755218 -0.033749 0
0.755430 -0.030230 0
0.755503 -0.026978 0
0.755454 -0.023988 0
0.755297 -0.021250 0
0.755047 -0.018754 0
0.754717 -0.016490 0
0.754318 -0.014445 0
0.753861 -0.012606 0
0.753356 -0.010960 0
0.752811 -0.009495 0
0.752235 -0.008196 0
0.751633 -0.007051 0
0.751013 -0.006048 0
0.750379 -0.005174 0
0.749737 -0.004417 0
0.749089 -0.003767 0
0.748441 -0.003212 0
0.747794 -0.002743 0
0.747150 -0.002350 0
0.746514 -0.002025 0
0.745885 -0.001760 0
0.745266 -0.001548 0
0.744659 -0.001382 0
0.744064 -0.001255 0
0.743484 -0.001162 0
0.742918 -0.001099 0
0.742369 -0.001059 0
0.741837 -0.001040 0
0.741323 -0.001038 0
0.740828 -0.001047 0
0.740353 -0.001067 0
0.739901 -0.001092 0
0.739473 -0.001121 0
0.739071 -0.001148 0
0.738700 -0.001171 0
0.738363 -0.001184 0
0.738066 -0.001179 0
0.737816 -0.001148 0
0.737623 -0.001075 0
0.737500 -0.000939 0
0.737457 -0.000718 0
0.737499 -0.000585 0
-0.500000 0.000000 0
-0.471729 0.000000 0
-0.430289 0.000000 0
-0.388984 0.000000 0
-0.352207 0.000000 0
-0.321413 0.000000 0
-0.297018 0.000000 0
-0.279242 0.000000 0
-0.269025 0.000000 0
-0.270350 -0.035511 0
0.000000 -0.000000 0
0.064760 0.061263 0
0.134984 0.039669 0
0.198561 0.018322 0
0.255617 0.000058 0
0.307944 -0.015952 0
0.356440 -0.029383 0
0.401424 -0.041041 0
0.442818 -0.051654 0
0.480877 -0.061699 0
0.516063 -0.071369 0
0.548661 -0.080775 0
0.578726 -0.089986 0
0.606307 -0.098961 0
0.631490 -0.107596 0
0.654369 -0.115759 0
0.675052 -0.123312 0
0.693659 -0.130123 0
0.710317 -0.136083 0
0.725162 -0.141106 0
0.738340 -0.145128 0
0.749995 -0.148114 0
0.760260 -0.150051 0
0.769258 -0.150950 0
0.777104 -0.150839 0
0.783903 -0.149768 0
0.789754 -0.147797 0
0.794751 -0.145000 0
0.798977 -0.141456 0
0.802509 -0.137254 0
0.805417 -0.132483 0
0.807762 -0.127235 0
0.809604 -0.121601 0
0.810994 -0.115670 0