# vtk DataFile Version 2.0
generated by CFD-lab course output (written by Tobias Neckel) 
ASCII

DATASET STRUCTURED_GRID
DIMENSIONS  101 21 1 
POINTS 2121 float

0.000000 0.000000 0
0.100000 0.000000 0
0.200000 0.000000 0
0.300000 0.000000 0
0.400000 0.000000 0
0.500000 0.000000 0
0.600000 0.000000 0
0.700000 0.000000 0
0.800000 0.000000 0
0.900000 0.000000 0
1.000000 0.000000 0
1.100000 0.000000 0
1.200000 0.000000 0
1.300000 0.000000 0
1.400000 0.000000 0
1.500000 0.000000 0
1.600000 0.000000 0
1.700000 0.000000 0
1.800000 0.000000 0
1.900000 0.000000 0
2.000000 0.000000 0
2.100000 0.000000 0
2.200000 0.000000 0
2.300000 0.000000 0
2.400000 0.000000 0
2.500000 0.000000 0
2.600000 0.000000 0
2.700000 0.000000 0
2.800000 0.000000 0
2.900000 0.000000 0
3.000000 0.000000 0
3.100000 0.000000 0
3.200000 0.000000 0
3.300000 0.000000 0
3.400000 0.000000 0
3.500000 0.000000 0
3.600000 0.000000 0
3.700000 0.000000 0
3.800000 0.000000 0
3.900000 0.000000 0
4.000000 0.000000 0
4.100000 0.000000 0
4.200000 0.000000 0
4.300000 0.000000 0
4.400000 0.000000 0
4.500000 0.000000 0
4.600000 0.000000 0
4.700000 0.000000 0
4.800000 0.000000 0
4.900000 0.000000 0
5.000000 0.000000 0
5.100000 0.000000 0
5.200000 0.000000 0
5.300000 0.000000 0
5.400000 0.000000 0
5.500000 0.000000 0
5.600000 0.000000 0
5.700000 0.000000 0
5.800000 0.000000 0
5.900000 0.000000 0
6.000000 0.000000 0
6.100000 0.000000 0
6.200000 0.000000 0
6.300000 0.000000 0
6.400000 0.000000 0
6.500000 0.000000 0
6.600000 0.000000 0
6.700000 0.000000 0
6.800000 0.000000 0
6.900000 0.000000 0
7.000000 0.000000 0
7.100000 0.000000 0
7.200000 0.000000 0
7.300000 0.000000 0
7.400000 0.000000 0
7.500000 0.000000 0
7.600000 0.000000 0
7.700000 0.000000 0
7.800000 0.000000 0
7.900000 0.000000 0
8.000000 0.000000 0
8.100000 0.000000 0
8.200000 0.000000 0
8.300000 0.000000 0
8.400000 0.000000 0
8.500000 0.000000 0
8.600000 0.000000 0
8.700000 0.000000 0
8.800000 0.000000 0
8.900000 0.000000 0
9.000000 0.000000 0
9.100000 0.000000 0
9.200000 0.000000 0
9.300000 0.000000 0
9.400000 0.000000 0
9.500000 0.000000 0
9.600000 0.000000 0
9.700000 0.000000 0
9.800000 0.000000 0
9.900000 0.000000 0
10.000000 0.000000 0
0.000000 0.100000 0
0.100000 0.100000 0
0.200000 0.100000 0
0.300000 0.100000 0
0.400000 0.100000 0
0.500000 0.100000 0
0.600000 0.100000 0
0.700000 0.100000 0
0.800000 0.100000 0
0.900000 0.100000 0
1.000000 0.100000 0
1.100000 0.100000 0
1.200000 0.100000 0
1.300000 0.100000 0
1.400000 0.100000 0
1.500000 0.100000 0
1.600000 0.100000 0
1.700000 0.100000 0
1.800000 0.100000 0
1.900000 0.100000 0
2.000000 0.100000 0
2.100000 0.100000 0
2.200000 0.100000 0
2.300000 0.100000 0
2.400000 0.100000 0
2.500000 0.100000 0
2.600000 0.100000 0
2.700000 0.100000 0
2.800000 0.100000 0
2.900000 0.100000 0
3.000000 0.100000 0
3.100000 0.100000 0
3.200000 0.100000 0
3.300000 0.100000 0
3.400000 0.100000 0
3.500000 0.100000 0
3.600000 0.100000 0
3.700000 0.100000 0
3.800000 0.100000 0
3.900000 0.100000 0
4.000000 0.100000 0
4.100000 0.100000 0
4.200000 0.100000 0
4.300000 0.100000 0
4.400000 0.100000 0
4.500000 0.100000 0
4.600000 0.100000 0
4.700000 0.100000 0
4.800000 0.100000 0
4.900000 0.100000 0
5.000000 0.100000 0
5.100000 0.100000 0
5.200000 0.100000 0
5.300000 0.100000 0
5.400000 0.100000 0
5.500000 0.100000 0
5.600000 0.100000 0
5.700000 0.100000 0
5.800000 0.100000 0
5.900000 0.100000 0
6.000000 0.100000 0
6.100000 0.100000 0
6.200000 0.100000 0
6.300000 0.100000 0
6.400000 0.100000 0
6.500000 0.100000 0
6.600000 0.100000 0
6.700000 0.100000 0
6.800000 0.100000 0
6.900000 0.100000 0
7.000000 0.100000 0
7.100000 0.100000 0
7.200000 0.100000 0
7.300000 0.100000 0
7.400000 0.100000 0
7.500000 0.100000 0
7.600000 0.100000 0
7.700000 0.100000 0
7.800000 0.100000 0
7.900000 0.100000 0
8.000000 0.100000 0
8.100000 0.100000 0
8.200000 0.100000 0
8.300000 0.100000 0
8.400000 0.100000 0
8.500000 0.100000 0
8.600000 0.100000 0
8.700000 0.100000 0
8.800000 0.100000 0
8.900000 0.100000 0
9.000000 0.100000 0
9.100000 0.100000 0
9.200000 0.100000 0
9.300000 0.100000 0
9.400000 0.100000 0
9.500000 0.100000 0
9.600000 0.100000 0
9.700000 0.100000 0
9.800000 0.100000 0
9.900000 0.100000 0
10.000000 0.100000 0
0.000000 0.200000 0
0.100000 0.200000 0
0.200000 0.200000 0
0.300000 0.200000 0
0.400000 0.200000 0
0.500000 0.200000 0
0.600000 0.200000 0
0.700000 0.200000 0
0.800000 0.200000 0
0.900000 0.200000 0
1.000000 0.200000 0
1.100000 0.200000 0
1.200000 0.200000 0
1.300000 0.200000 0
1.400000 0.200000 0
1.500000 0.200000 0
1.600000 0.200000 0
1.700000 0.200000 0
1.800000 0.200000 0
1.900000 0.200000 0
2.000000 0.200000 0
2.100000 0.200000 0
2.200000 0.200000 0
2.300000 0.200000 0
2.400000 0.200000 0
2.500000 0.200000 0
2.600000 0.200000 0
2.700000 0.200000 0
2.800000 0.200000 0
2.900000 0.200000 0
3.000000 0.200000 0
3.100000 0.200000 0
3.200000 0.200000 0
3.300000 0.200000 0
3.400000 0.200000 0
3.500000 0.200000 0
3.600000 0.200000 0
3.700000 0.200000 0
3.800000 0.200000 0
3.900000 0.200000 0
4.000000 0.200000 0
4.100000 0.200000 0
4.200000 0.200000 0
4.300000 0.200000 0
4.400000 0.200000 0
4.500000 0.200000 0
4.600000 0.200000 0
4.700000 0.200000 0
4.800000 0.200000 0
4.900000 0.200000 0
5.000000 0.200000 0
5.100000 0.200000 0
5.200000 0.200000 0
5.300000 0.200000 0
5.400000 0.200000 0
5.500000 0.200000 0
5.600000 0.200000 0
5.700000 0.200000 0
5.800000 0.200000 0
5.900000 0.200000 0
6.000000 0.200000 0
6.100000 0.200000 0
6.200000 0.200000 0
6.300000 0.200000 0
6.400000 0.200000 0
6.500000 0.200000 0
6.600000 0.200000 0
6.700000 0.200000 0
6.800000 0.200000 0
6.900000 0.200000 0
7.000000 0.200000 0
7.100000 0.200000 0
7.200000 0.200000 0
7.300000 0.200000 0
7.400000 0.200000 0
7.500000 0.200000 0
7.600000 0.200000 0
7.700000 0.200000 0
7.800000 0.200000 0
7.900000 0.200000 0
8.000000 0.200000 0
8.100000 0.200000 0
8.200000 0.200000 0
8.300000 0.200000 0
8.400000 0.200000 0
8.500000 0.200000 0
8.600000 0.200000 0
8.700000 0.200000 0
8.800000 0.200000 0
8.900000 0.200000 0
9.000000 0.200000 0
9.100000 0.200000 0
9.200000 0.200000 0
9.300000 0.200000 0
9.400000 0.200000 0
9.500000 0.200000 0
9.600000 0.200000 0
9.700000 0.200000 0
9.800000 0.200000 0
9.900000 0.200000 0
10.000000 0.200000 0
0.000000 0.300000 0
0.100000 0.300000 0
0.200000 0.300000 0
0.300000 0.300000 0
0.400000 0.300000 0
0.500000 0.300000 0
0.600000 0.300000 0
0.700000 0.300000 0
0.800000 0.300000 0
0.900000 0.300000 0
1.000000 0.300000 0
1.100000 0.300000 0
1.200000 0.300000 0
1.300000 0.300000 0
1.400000 0.300000 0
1.500000 0.300000 0
1.600000 0.300000 0
1.700000 0.300000 0
1.800000 0.300000 0
1.900000 0.300000 0
2.000000 0.300000 0
2.100000 0.300000 0
2.200000 0.300000 0
2.300000 0.300000 0
2.400000 0.300000 0
2.500000 0.300000 0
2.600000 0.300000 0
2.700000 0.300000 0
2.800000 0.300000 0
2.900000 0.300000 0
3.000000 0.300000 0
3.100000 0.300000 0
3.200000 0.300000 0
3.300000 0.300000 0
3.400000 0.300000 0
3.500000 0.300000 0
3.600000 0.300000 0
3.700000 0.300000 0
3.800000 0.300000 0
3.900000 0.300000 0
4.000000 0.300000 0
4.100000 0.300000 0
4.200000 0.300000 0
4.300000 0.300000 0
4.400000 0.300000 0
4.500000 0.300000 0
4.600000 0.300000 0
4.700000 0.300000 0
4.800000 0.300000 0
4.900000 0.300000 0
5.000000 0.300000 0
5.100000 0.300000 0
5.200000 0.300000 0
5.300000 0.300000 0
5.400000 0.300000 0
5.500000 0.300000 0
5.600000 0.300000 0
5.700000 0.300000 0
5.800000 0.300000 0
5.900000 0.300000 0
6.000000 0.300000 0
6.100000 0.300000 0
6.200000 0.300000 0
6.300000 0.300000 0
6.400000 0.300000 0
6.500000 0.300000 0
6.600000 0.300000 0
6.700000 0.300000 0
6.800000 0.300000 0
6.900000 0.300000 0
7.000000 0.300000 0
7.100000 0.300000 0
7.200000 0.300000 0
7.300000 0.300000 0
7.400000 0.300000 0
7.500000 0.300000 0
7.600000 0.300000 0
7.700000 0.300000 0
7.800000 0.300000 0
7.900000 0.300000 0
8.000000 0.300000 0
8.100000 0.300000 0
8.200000 0.300000 0
8.300000 0.300000 0
8.400000 0.300000 0
8.500000 0.300000 0
8.600000 0.300000 0
8.700000 0.300000 0
8.800000 0.300000 0
8.900000 0.300000 0
9.000000 0.300000 0
9.100000 0.300000 0
9.200000 0.300000 0
9.300000 0.300000 0
9.400000 0.300000 0
9.500000 0.300000 0
9.600000 0.300000 0
9.700000 0.300000 0
9.800000 0.300000 0
9.900000 0.300000 0
10.000000 0.300000 0
0.000000 0.400000 0
0.100000 0.400000 0
0.200000 0.400000 0
0.300000 0.400000 0
0.400000 0.400000 0
0.500000 0.400000 0
0.600000 0.400000 0
0.700000 0.400000 0
0.800000 0.400000 0
0.900000 0.400000 0
1.000000 0.400000 0
1.100000 0.400000 0
1.200000 0.400000 0
1.300000 0.400000 0
1.400000 0.400000 0
1.500000 0.400000 0
1.600000 0.400000 0
1.700000 0.400000 0
1.800000 0.400000 0
1.900000 0.400000 0
2.000000 0.400000 0
2.100000 0.400000 0
2.200000 0.400000 0
2.300000 0.400000 0
2.400000 0.400000 0
2.500000 0.400000 0
2.600000 0.400000 0
2.700000 0.400000 0
2.800000 0.400000 0
2.900000 0.400000 0
3.000000 0.400000 0
3.100000 0.400000 0
3.200000 0.400000 0
3.300000 0.400000 0
3.400000 0.400000 0
3.500000 0.400000 0
3.600000 0.400000 0
3.700000 0.400000 0
3.800000 0.400000 0
3.900000 0.400000 0
4.000000 0.400000 0
4.100000 0.400000 0
4.200000 0.400000 0
4.300000 0.400000 0
4.400000 0.400000 0
4.500000 0.400000 0
4.600000 0.400000 0
4.700000 0.400000 0
4.800000 0.400000 0
4.900000 0.400000 0
5.000000 0.400000 0
5.100000 0.400000 0
5.200000 0.400000 0
5.300000 0.400000 0
5.400000 0.400000 0
5.500000 0.400000 0
5.600000 0.400000 0
5.700000 0.400000 0
5.800000 0.400000 0
5.900000 0.400000 0
6.000000 0.400000 0
6.100000 0.400000 0
6.200000 0.400000 0
6.300000 0.400000 0
6.400000 0.400000 0
6.500000 0.400000 0
6.600000 0.400000 0
6.700000 0.400000 0
6.800000 0.400000 0
6.900000 0.400000 0
7.000000 0.400000 0
7.100000 0.400000 0
7.200000 0.400000 0
7.300000 0.400000 0
7.400000 0.400000 0
7.500000 0.400000 0
7.600000 0.400000 0
7.700000 0.400000 0
7.800000 0.400000 0
7.900000 0.400000 0
8.000000 0.400000 0
8.100000 0.400000 0
8.200000 0.400000 0
8.300000 0.400000 0
8.400000 0.400000 0
8.500000 0.400000 0
8.600000 0.400000 0
[...]
POINT_DATA 2121 

VECTORS velocity float
0.000000 0.000000 0
0.000000 0.000000 0
0.000000 0.000000 0
0.000000 0.000000 0
0.000000 0.000000 0
0.000000 0.000000 0
0.000000 0.000000 0
0.000000 0.000000 0
0.000000 0.000000 0
0.000000 0.000000 0
0.000000 0.000000 0
-0.000000 0.000000 0
-0.000000 0.000000 0
-0.000000 0.000000 0
-0.000000 0.000000 0
-0.000001 0.000000 0
-0.000000 0.000000 0
0.000000 0.000000 0
0.000001 0.000000 0
0.000001 0.000000 0
0.000000 0.000000 0
-0.000000 0.000000 0
-0.000000 0.000000 0
-0.000000 0.000000 0
0.000000 0.000000 0
0.000000 0.000000 0
0.000001 0.000000 0
0.000001 0.000000 0
0.000000 0.000000 0
-0.000000 0.000000 0
-0.000000 0.000000 0
-0.000000 0.000000 0
-0.000000 0.000000 0
0.000001 0.000000 0
0.000001 0.000000 0
0.000001 0.000000 0
-0.000000 0.000000 0
-0.000001 0.000000 0
-0.000001 0.000000 0
-0.000000 0.000000 0
0.000000 0.000000 0
0.000000 0.000000 0
0.000000 0.000000 0
-0.000000 0.000000 0
-0.000000 0.000000 0
-0.000001 0.000000 0
-0.000001 0.000000 0
-0.000000 0.000000 0
-0.000000 0.000000 0
-0.000000 0.000000 0
-0.000000 0.000000 0
-0.000000 0.000000 0
-0.000001 0.000000 0
-0.000001 0.000000 0
-0.000000 0.000000 0
-0.000000 0.000000 0
-0.000000 0.000000 0
-0.000000 0.000000 0
-0.000000 0.000000 0
-0.000000 0.000000 0
-0.000000 0.000000 0
-0.000000 0.000000 0
-0.000000 0.000000 0
-0.000000 0.000000 0
-0.000000 0.000000 0
-0.000000 0.000000 0
-0.000000 0.000000 0
-0.000000 0.000000 0
-0.000000 0.000000 0
-0.000000 0.000000 0
-0.000000 0.000000 0
-0.000000 0.000000 0
-0.000000 0.000000 0
-0.000000 0.000000 0
-0.000000 0.000000 0
-0.000000 0.000000 0
-0.000001 0.000000 0
-0.000001 0.000000 0
-0.000001 0.000000 0
-0.000001 0.000000 0
-0.000001 0.000000 0
-0.000001 0.000000 0
-0.000001 0.000000 0
-0.000001 0.000000 0
-0.000001 0.000000 0
-0.000001 0.000000 0
-0.000001 0.000000 0
-0.000001 0.000000 0
-0.000001 0.000000 0
-0.000001 0.000000 0
-0.000001 0.000000 0
-0.000001 0.000000 0
-0.000001 0.000000 0
-0.000001 0.000000 0
-0.000001 0.000000 0
-0.000001 0.000000 0
-0.000001 0.000000 0
-0.000001 0.000000 0
-0.000001 0.000000 0
-0.000001 0.000000 0
-0.000001 0.000000 0
0.000000 0.000000 0
0.000000 0.000000 0
0.000000 0.000000 0
0.000000 0.000000 0
0.000000 0.000000 0
0.000000 0.000000 0
0.000000 0.000000 0
0.000000 0.000000 0
0.000000 0.000000 0
0.000000 -0.000189 0
0.000000 -0.000000 0
-0.002138 0.001757 0
-0.008371 0.003961 0
-0.016813 0.005084 0
-0.026024 0.005432 0
-0.035304 0.005466 0
-0.044437 0.005451 0
-0.053431 0.005489 0
-0.062365 0.005602 0
-0.071310 0.005774 0
-0.080297 0.005971 0
-0.089289 0.006144 0
-0.098161 0.006227 0
-0.106691 0.006145 0
-0.114564 0.005835 0
-0.121407 0.005259 0
-0.126850 0.004419 0
-0.130583 0.003346 0
-0.132365 0.002089 0
-0.132053 0.000731 0
-0.129616 -0.000657 0
-0.125166 -0.002033 0
-0.118895 -0.003334 0
-0.111046 -0.004497 0
-0.101865 -0.005514 0
-0.091556 -0.006387 0
-0.080319 -0.007092 0
-0.068396 -0.007598 0
-0.056044 -0.007916 0
-0.043480 -0.008130 0
-0.030765 -0.008237 0
-0.018102 -0.008169 0
-0.005641 -0.008005 0
0.006421 -0.007778 0
0.017980 -0.007448 0
0.028972 -0.007030 0
0.039345 -0.006568 0
0.049071 -0.006095 0
0.058134 -0.005621 0
0.066531 -0.005151 0
0.074267 -0.004692 0
0.081354 -0.004247 0
0.087812 -0.003822 0
0.093666 -0.003419 0
0.098943 -0.003040 0
0.103676 -0.002687 0
0.107899 -0.002362 0
0.111647 -0.002063 0
0.114955 -0.001792 0
0.117860 -0.001547 0
0.120397 -0.001326 0
0.122600 -0.001130 0
0.124503 -0.000956 0
0.126137 -0.000803 0
0.127530 -0.000669 0
0.128712 -0.000553 0
0.129708 -0.000453 0
0.130541 -0.000367 0
0.131234 -0.000295 0
0.131805 -0.000234 0
0.132273 -0.000183 0
0.132654 -0.000142 0
0.132962 -0.000108 0
0.133210 -0.000082 0
0.133409 -0.000061 0
0.133568 -0.000046 0
0.133697 -0.000035 0
0.133802 -0.000028 0
0.133891 -0.000023 0
0.133967 -0.000022 0
0.134037 -0.000022 0
0.134103 -0.000024 0
0.134168 -0.000028 0
0.134236 -0.000032 0
0.134308 -0.000037 0
0.134384 -0.000042 0
0.134468 -0.000048 0
0.134558 -0.000053 0
0.134654 -0.000058 0
0.134757 -0.000063 0
0.134866 -0.000066 0
0.134979 -0.000069 0
0.135095 -0.000070 0
0.135211 -0.000068 0
0.135324 -0.000065 0
0.135430 -0.000059 0
0.135524 -0.000049 0
0.135601 -0.000036 0
0.135654 -0.000020 0
0.135681 -0.000007 0
0.135683 -0.000001 0
0.000000 0.000000 0
0.000000 0.000000 0
0.000000 0.000000 0
0.000000 0.000000 0
0.000000 0.000000 0
0.000000 0.000000 0
0.000000 0.000000 0
0.000000 0.000000 0
0.000000 0.000000 0
0.000000 -0.002138 0
0.000000 -0.000000 0
-0.005614 0.008371 0
-0.017550 0.014675 0
-0.032201 0.017653 0
-0.047500 0.018490 0
-0.062517 0.018412 0
-0.076954 0.018128 0
-0.090801 0.017930 0
-0.104133 0.017881 0
-0.117010 0.017933 0
-0.129423 0.017978 0
-0.141274 0.017863 0
-0.152339 0.017402 0
-0.162271 0.016403 0
-0.170602 0.014717 0
-0.176803 0.012288 0
-0.180383 0.009176 0
-0.180992 0.005515 0
-0.178389 0.001470 0
-0.172745 -0.002751 0
-0.164287 -0.006889 0
-0.153359 -0.010721 0
-0.140325 -0.014118 0
-0.125566 -0.017028 0
-0.109432 -0.019489 0
-0.092193 -0.021547 0
-0.074088 -0.023162 0
-0.055395 -0.024276 0
-0.036355 -0.024917 0
-0.017158 -0.025277 0
0.001830 -0.025376 0
0.020479 -0.025124 0
0.038684 -0.024523 0
0.056255 -0.023621 0
0.073097 -0.022552 0
0.089156 -0.021365 0
0.104395 -0.020099 0
0.118771 -0.018788 0
0.132260 -0.017460 0
0.144851 -0.016132 0
0.156546 -0.014823 0
0.167356 -0.013546 0
0.177302 -0.012312 0
0.186410 -0.011131 0
0.194712 -0.010010 0
0.202244 -0.008956 0
0.209046 -0.007970 0
0.215161 -0.007056 0
0.220632 -0.006213 0
0.225504 -0.005442 0
0.229823 -0.004740 0
0.233633 -0.004106 0
0.236978 -0.003536 0
0.239900 -0.003027 0
0.242439 -0.002576 0
0.244635 -0.002178 0
0.246524 -0.001829 0
0.248141 -0.001526 0
0.249518 -0.001264 0
0.250684 -0.001040 0
0.251667 -0.000849 0
0.252491 -0.000689 0
0.253180 -0.000556 0
0.253754 -0.000447 0
0.254231 -0.000358 0
0.254628 -0.000288 0
0.254959 -0.000234 0
0.255237 -0.000194 0
0.255473 -0.000165 0
0.255677 -0.000146 0
0.255857 -0.000135 0
0.256021 -0.000132 0
0.256174 -0.000133 0
0.256322 -0.000139 0
0.256468 -0.000149 0
0.256616 -0.000160 0
0.256768 -0.000173 0
0.256926 -0.000187 0
0.257091 -0.000200 0
0.257263 -0.000212 0
0.257441 -0.000222 0
0.257625 -0.000229 0
0.257813 -0.000232 0
0.258001 -0.000229 0
0.258185 -0.000219 0
0.258360 -0.000200 0
0.258518 -0.000171 0
0.258652 -0.000130 0
0.258750 -0.000080 0
0.258803 -0.000029 0
0.258808 -0.000005 0
0.000000 0.000000 0
0.000000 0.000000 0
0.000000 0.000000 0
0.000000 0.000000 0
0.000000 0.000000 0
0.000000 0.000000 0
0.000000 0.000000 0
0.000000 0.000000 0
0.000000 0.000000 0
0.000000 -0.005803 0
0.000000 -0.000001 0
-0.008598 0.019307 0
-0.024780 0.030548 0
-0.043144 0.035034 0
-0.061261 0.035748 0
-0.078241 0.034920 0
-0.093875 0.033736 0
-0.108205 0.032670 0
-0.121323 0.031811 0
-0.133270 0.031063 0
-0.144012 0.030234 0
-0.153428 0.029059 0
-0.161268 0.027224 0
-0.167161 0.024409 0
-0.170590 0.020368 0
-0.170957 0.015041 0
-0.167736 0.008608 0
-0.160676 0.001351 0
-0.150442 -0.006159 0
-0.137603 -0.013372 0
-0.122516 -0.020042 0
-0.105609 -0.025993 0
-0.087181 -0.031124 0
-0.067568 -0.035390 0
-0.047028 -0.038888 0
-0.025883 -0.041733 0
-0.004466 -0.043891 0
0.017050 -0.045331 0
0.038533 -0.046152 0
0.059842 -0.046314 0
0.080663 -0.045873 0
0.100903 -0.045023 0
0.120471 -0.043782 0
0.139353 -0.042192 0
0.157483 -0.040350 0
0.174798 -0.038327 0
0.191256 -0.036181 0
0.206825 -0.033959 0
0.221486 -0.031700 0
0.235231 -0.029438 0
0.248063 -0.027198 0
0.259994 -0.025004 0
0.271042 -0.022876 0
0.281232 -0.020828 0
0.290593 -0.018873 0
0.299159 -0.017021 0
0.306965 -0.015278 0
0.314052 -0.013649 0
0.320460 -0.012136 0
0.326231 -0.010738 0
0.331406 -0.009455 0
0.336028 -0.008284 0
0.340140 -0.007222 0
0.343781 -0.006264 0
0.346993 -0.005404 0
0.349813 -0.004638 0
0.352278 -0.003959 0
0.354425 -0.003361 0
0.356286 -0.002837 0
0.357892 -0.002383 0
0.359273 -0.001991 0
0.360456 -0.001655 0
0.361466 -0.001371 0
0.362325 -0.001133 0
0.363055 -0.000935 0
0.363675 -0.000774 0
0.364201 -0.000644 0
0.364650 -0.000542 0
0.365035 -0.000463 0
0.365368 -0.000406 0
0.365659 -0.000366 0
0.365919 -0.000341 0
0.366154 -0.000328 0
0.366372 -0.000326 0
0.366579 -0.000331 0
0.366780 -0.000342 0
0.366978 -0.000358 0
0.367177 -0.000376 0
0.367379 -0.000395 0
0.367584 -0.000413 0
0.367794 -0.000429 0
0.368009 -0.000440 0
0.368226 -0.000445 0
0.368445 -0.000441 0
0.368660 -0.000424 0
0.368866 -0.000392 0
0.369057 -0.000341 0
0.369223 -0.000268 0
0.369350 -0.000172 0
0.369423 -0.000064 0
0.369429 -0.000010 0
0.000000 0.000000 0
0.000000 0.000000 0
0.000000 0.000000 0
0.000000 0.000000 0
0.000000 0.000000 0
0.000000 0.000000 0
0.000000 0.000000 0
0.000000 0.000000 0
0.000000 0.000000 0
0.000000 -0.010737 0
0.000000 -0.000001 0
-0.010683 0.033151 0
-0.028993 0.049221 0
-0.048091 0.054133 0
-0.065515 0.053585 0
-0.080666 0.051027 0
-0.093569 0.048094 0
-0.104398 0.045379 0
-0.113305 0.042945 0
-0.120323 0.040621 0
-0.125381 0.038135 0
-0.128367 0.035118 0
-0.128993 0.031135 0
-0.126897 0.025726 0
-0.121571 0.018514 0
-0.112269 0.009434 0
-0.099150 -0.001105 0
-0.083281 -0.011780 0
-0.065532 -0.021604 0
-0.046290 -0.030677 0
-0.026037 -0.038882 0
-0.005014 -0.046054 0
0.016586 -0.052158 0
0.038599 -0.057182 0
0.060865 -0.061176 0
0.083149 -0.064111 0
0.105204 -0.066096 0
0.126914 -0.067275 0
0.148181 -0.067707 0
0.168881 -0.067406 0
0.189023 -0.066437 0
0.208510 -0.064933 0
0.227264 -0.062974 0
0.245264 -0.060634 0
0.262478 -0.057996 0
0.278875 -0.055137 0
0.294432 -0.052125 0
0.309133 -0.049018 0
0.322972 -0.045866 0
0.335951 -0.042710 0
0.348081 -0.039587 0
0.359376 -0.036525 0
0.369859 -0.033549 0
0.379554 -0.030681 0
0.388490 -0.027937 0
0.396698 -0.025328 0
0.404214 -0.022864 0
0.411071 -0.020551 0
0.417306 -0.018392 0
0.422957 -0.016388 0
0.428058 -0.014538 0
0.432649 -0.012840 0
0.436764 -0.011289 0
0.440439 -0.009880 0
0.443710 -0.008607 0
0.446609 -0.007464 0
0.449170 -0.006441 0
0.451422 -0.005533 0
0.453396 -0.004731 0
0.455119 -0.004027 0
0.456617 -0.003413 0
0.457916 -0.002881 0
0.459037 -0.002425 0
0.460002 -0.002036 0
0.460830 -0.001708 0
0.461541 -0.001435 0
0.462149 -0.001210 0
0.462670 -0.001027 0
0.463118 -0.000882 0
0.463503 -0.000770 0
0.463839 -0.000686 0
0.464133 -0.000626 0
0.464395 -0.000587 0
0.464631 -0.000565 0
0.464849 -0.000556 0
0.465054 -0.000559 0
0.465251 -0.000570 0
0.465443 -0.000587 0
0.465633 -0.000607 0
0.465824 -0.000628 0
0.466017 -0.000647 0
0.466213 -0.000661 0
0.466412 -0.000667 0
0.466613 -0.000662 0
0.466813 -0.000640 0
0.467009 -0.000598 0
0.467193 -0.000528 0
0.467359 -0.000424 0
0.467491 -0.000280 0
0.467570 -0.000108 0
0.467577 -0.000017 0
0.000000 0.000000 0
0.000000 0.000000 0
0.000000 0.000000 0
0.000000 0.000000 0
0.000000 0.000000 0
0.000000 0.000000 0
0.000000 0.000000 0
0.000000 0.000000 0
0.000000 0.000000 0
0.000000 -0.016487 0
0.000000 -0.000000 0
-0.012114 0.048301 0
-0.030125 0.067955 0
-0.046484 0.071555 0
-0.059393 0.068322 0
-0.068899 0.062973 0
-0.075384 0.057469 0
-0.079179 0.052408 0
-0.080519 0.047735 0
-0.079404 0.043138 0
-0.075641 0.038276 0
-0.069106 0.032671 0
-0.059394 0.025755 0
-0.045763 0.016987 0
-0.028236 0.005742 0
-0.008007 -0.007380 0
0.013765 -0.020381 0
0.036075 -0.032268 0
0.058825 -0.043151 0
0.081877 -0.052868 0
0.104902 -0.061317 0
0.127801 -0.068615 0
0.150439 -0.074736 0
0.172768 -0.079670 0
0.194683 -0.083441 0
0.216120 -0.086073 0
0.237052 -0.087655 0
0.257387 -0.088307 0
0.277051 -0.088117 0
0.295987 -0.087155 0
0.314199 -0.085502 0
0.331659 -0.083265 0
0.348340 -0.080537 0
0.364230 -0.077407 0
0.379324 -0.073961 0
0.393615 -0.070280 0
0.407102 -0.066438 0
0.419786 -0.062499 0
0.431677 -0.058519 0
0.442787 -0.054547 0
0.453136 -0.050623 0
0.462745 -0.046782 0
0.471639 -0.043053 0
0.479847 -0.039458 0
0.487397 -0.036018 0
0.494322 -0.032746 0
0.500655 -0.029651 0
0.506427 -0.026742 0
0.511673 -0.024021 0
0.516425 -0.021490 0
0.520716 -0.019147 0
0.524578 -0.016990 0
0.528042 -0.015013 0
0.531137 -0.013210 0
0.533894 -0.011574 0
0.536340 -0.010098 0
0.538502 -0.008772 0
0.540405 -0.007587 0
0.542074 -0.006534 0
0.543530 -0.005604 0
0.544797 -0.004787 0
0.545892 -0.004075 0
0.546836 -0.003457 0
0.547645 -0.002927 0
0.548336 -0.002474 0
0.548923 -0.002092 0
0.549419 -0.001773 0
0.549838 -0.001510 0
0.550191 -0.001297 0
0.550487 -0.001127 0
0.550737 -0.000996 0
0.550947 -0.000897 0
0.551127 -0.000827 0
0.551283 -0.000780 0
0.551419 -0.000754 0
0.551543 -0.000744 0
0.551657 -0.000746 0
0.551766 -0.000758 0
0.551873 -0.000776 0
0.551980 -0.000798 0
0.552090 -0.000819 0
0.552204 -0.000836 0
0.552324 -0.000845 0
0.552448 -0.000841 0
0.552577 -0.000819 0
0.552709 -0.000772 0
0.552839 -0.000691 0
0.552962 -0.000565 0
0.553067 -0.000383 0
0.553135 -0.000151 0
0.553142 -0.000024 0
0.000000 0.000000 0
0.000000 0.000000 0
0.000000 0.000000 0
0.000000 0.000000 0
0.000000 0.000000 0
0.000000 0.000000 0
0.000000 0.000000 0
0.000000 0.000000 0
0.000000 0.000000 0
0.000000 -0.022852 0
0.000000 0.000000 0
-0.013424 0.063278 0
-0.027949 0.083590 0
-0.036977 0.083397 0
-0.040718 0.075999 0
-0.040369 0.067019 0
-0.036666 0.058376 0
-0.029881 0.050514 0
-0.020300 0.043168 0
-0.007892 0.035741 0
0.007761 0.027836 0
0.027254 0.018871 0
0.050311 0.007793 0
0.076090 -0.005431 0
0.103409 -0.019241 0
0.130654 -0.032567 0
0.157027 -0.045189 0
0.182688 -0.056841 0
0.207654 -0.067407 0
0.231841 -0.076753 0
0.255326 -0.084803 0
0.278061 -0.091589 0
0.299997 -0.097125 0
0.321121 -0.101427 0
0.341420 -0.104529 0
0.360899 -0.106482 0
0.379578 -0.107363 0
0.397446 -0.107272 0
0.414489 -0.106305 0
0.430704 -0.104553 0
0.446103 -0.102109 0
0.460696 -0.099075 0
0.474493 -0.095547 0
0.487503 -0.091619 0
0.499742 -0.087380 0
0.511223 -0.082914 0
0.521961 -0.078296 0
0.531974 -0.073594 0
0.541282 -0.068868 0
0.549909 -0.064170 0
0.557879 -0.059544 0
0.565218 -0.055027 0
0.571956 -0.050651 0
0.578122 -0.046439 0
0.583746 -0.042413 0
0.588859 -0.038586 0
0.593492 -0.034969 0
0.597677 -0.031569 0
0.601443 -0.028390 0
0.604820 -0.025431 0
0.607836 -0.022691 0
0.610519 -0.020165 0
0.612897 -0.017848 0
0.614993 -0.015733 0
0.616832 -0.013810 0
0.618438 -0.012072 0
0.619832 -0.010507 0
0.621033 -0.009105 0
0.622061 -0.007856 0
0.622935 -0.006750 0
0.623669 -0.005775 0
0.624280 -0.004921 0
0.624781 -0.004178 0
0.625186 -0.003536 0
0.625507 -0.002986 0
0.625754 -0.002518 0
0.625937 -0.002125 0
0.626067 -0.001799 0
0.626150 -0.001531 0
0.626195 -0.001316 0
0.626209 -0.001146 0
0.626197 -0.001017 0
0.626165 -0.000922 0
0.626119 -0.000857 0
0.626062 -0.000817 0
0.625999 -0.000797 0
0.625933 -0.000793 0
0.625866 -0.000803 0
0.625803 -0.000821 0
0.625745 -0.000845 0
0.625694 -0.000871 0
0.625652 -0.000894 0
0.625621 -0.000911 0
0.625602 -0.000915 0
0.625597 -0.000901 0
0.625606 -0.000860 0
0.625628 -0.000782 0
0.625662 -0.000651 0
0.625702 -0.000453 0
0.625736 -0.000183 0
0.625743 -0.000031 0
0.000000 0.000000 0
0.000000 0.000000 0
0.000000 0.000000 0
0.000000 0.000000 0
0.000000 0.000000 0
0.000000 0.000000 0
0.000000 0.000000 0
0.000000 0.000000 0
0.000000 0.000000 0
0.000000 -0.029913 0
0.000000 0.000001 0
-0.014119 0.076253 0
-0.018883 0.091504 0
-0.013196 0.084319 0
-0.001262 0.071713 0
0.014149 0.058924 0
0.032383 0.046984 0
0.053509 0.036041 0
0.077924 0.025744 0
0.105440 0.015074 0
0.135374 0.003129 0
0.167127 -0.009878 0
0.199831 -0.023079 0
0.232044 -0.036109 0
0.262782 -0.048822 0
0.292029 -0.060999 0
0.319720 -0.072417 0
0.345904 -0.082896 0
0.370640 -0.092305 0
0.393974 -0.100538 0
0.416010 -0.107535 0
0.436810 -0.113284 0
0.456421 -0.117796 0
0.474892 -0.121095 0
0.492275 -0.123221 0
0.508625 -0.124232 0
0.523995 -0.124200 0
0.538429 -0.123217 0
0.551962 -0.121374 0
0.564628 -0.118768 0
0.576465 -0.115496 0
0.587509 -0.111656 0
0.597792 -0.107344 0
0.607346 -0.102656 0
0.616200 -0.097679 0
0.624384 -0.092498 0
0.631926 -0.087189 0
0.638852 -0.081821 0
0.645193 -0.076455 0
0.650976 -0.071144 0
0.656230 -0.065932 0
0.660984 -0.060859 0
0.665267 -0.055956 0
0.669107 -0.051248 0
0.672535 -0.046755 0
0.675578 -0.042493 0
0.678265 -0.038470 0
0.680622 -0.034692 0
0.682676 -0.031164 0
0.684451 -0.027883 0
0.685972 -0.024847 0
0.687261 -0.022050 0
0.688340 -0.019486 0
0.689230 -0.017146 0
0.689949 -0.015020 0
0.690514 -0.013097 0
0.690944 -0.011366 0
0.691252 -0.009817 0
0.691454 -0.008435 0
0.691562 -0.007211 0
0.691587 -0.006132 0
0.691542 -0.005187 0
0.691435 -0.004364 0
0.691276 -0.003652 0
0.691073 -0.003042 0
0.690833 -0.002523 0
0.690562 -0.002086 0
0.690266 -0.001723 0
0.689952 -0.001425 0
0.689623 -0.001186 0
0.689284 -0.000997 0
0.688939 -0.000854 0
0.688591 -0.000749 0
0.688244 -0.000677 0
0.687900 -0.000634 0
0.687561 -0.000614 0
0.687230 -0.000614 0
0.686909 -0.000629 0
0.686599 -0.000655 0
0.686303 -0.000688 0
0.686022 -0.000726 0
0.685759 -0.000763 0
0.685515 -0.000795 0
0.685294 -0.000817 0
0.685098 -0.000823 0
0.684930 -0.000803 0
0.684795 -0.000747 0
0.684695 -0.000639 0
0.684635 -0.000458 0
0.684613 -0.000191 0
0.684618 -0.000036 0
0.000000 0.000000 0
0.000000 0.000000 0
0.000000 0.000000 0
0.000000 0.000000 0
0.000000 0.000000 0
0.000000 0.000000 0
0.000000 0.000000 0
0.000000 0.000000 0
0.000000 0.000000 0
0.000000 -0.036975 0
0.000000 0.000001 0
-0.005574 0.082163 0
0.015008 0.082660 0
0.046235 0.065772 0
0.080948 0.048654 0
0.117792 0.033377 0
0.155677 0.019019 0
0.193960 0.004972 0
0.232501 -0.008766 0
0.271032 -0.021712 0
0.308873 -0.033852 0
0.345044 -0.045584 0
0.379180 -0.057121 0
0.411237 -0.068382 0
0.441173 -0.079226 0
0.468993 -0.089506 0
0.494749 -0.099066 0
0.518533 -0.107762 0
0.540456 -0.115477 0
0.560634 -0.122122 0
0.579193 -0.127637 0
0.596254 -0.131999 0
0.611921 -0.135208 0
0.626295 -0.137284 0
0.639471 -0.138263 0
0.651540 -0.138201 0
0.662585 -0.137165 0
0.672681 -0.135237 0
0.681895 -0.132503 0
0.690288 -0.129057 0
0.697917 -0.124992 0
0.704837 -0.120403 0
0.711096 -0.115384 0
0.716739 -0.110027 0
0.721808 -0.104417 0
0.726340 -0.098638 0
0.730371 -0.092764 0
0.733936 -0.086862 0
0.737066 -0.080992 0
0.739793 -0.075207 0
0.742146 -0.069552 0
0.744152 -0.064064 0
0.745839 -0.058774 0
0.747234 -0.053708 0
0.748360 -0.048884 0
0.749242 -0.044316 0
0.749903 -0.040013 0
0.750363 -0.035980 0
0.750644 -0.032219 0
0.750764 -0.028727 0
0.750741 -0.025501 0
0.750591 -0.022533 0
0.750331 -0.019817 0
0.749973 -0.017341 0
0.749532 -0.015095 0
0.749020 -0.013067 0
0.748446 -0.011244 0
0.747823 -0.009615 0
0.747158 -0.008166 0
0.746459 -0.006883 0
0.745734 -0.005755 0
0.744989 -0.004769 0
0.744230 -0.003912 0
0.743462 -0.003174 0
0.742689 -0.002542 0
0.741914 -0.002007 0
0.741140 -0.001559 0
0.740372 -0.001189 0
0.739613 -0.000888 0
0.738864 -0.000648 0
0.738128 -0.000463 0
0.737406 -0.000324 0
0.736699 -0.000227 0
0.736008 -0.000166 0
0.735334 -0.000134 0
0.734679 -0.000127 0
0.734042 -0.000141 0
0.733427 -0.000172 0
0.732833 -0.000215 0
0.732262 -0.000268 0
0.731716 -0.000327 0
0.731197 -0.000387 0
0.730708 -0.000446 0
0.730253 -0.000498 0
0.729836 -0.000537 0
0.729463 -0.000557 0
0.729142 -0.000547 0
0.728884 -0.000492 0
0.728701 -0.000371 0
0.728608 -0.000166 0
0.728612 -0.000041 0
-0.500000 0.000000 0
-0.471745 0.000000 0
-0.430292 0.000000 0
-0.388977 0.000000 0
-0.352200 0.000000 0
-0.321412 0.000000 0
-0.297016 0.000000 0
-0.279228 0.000000 0
-0.268989 0.000000 0
-0.270284 -0.035492 0
0.000000 0.000001 0
0.064716 0.061245 0
0.134854 0.039687 0
0.198339 0.018376 0
0.255299 0.000158 0
0.307524 -0.015799 0
0.355912 -0.029181 0
0.400776 -0.040784 0
0.442042 -0.051332 0
0.479954 -0.061300 0
0.514981 -0.070883 0
0.547416 -0.080183 0
0.577326 -0.089269 0
0.604766 -0.098102 0
0.629818 -0.106579 0
0.652572 -0.114576 0
0.673139 -0.121959 0
0.691643 -0.128604 0
0.708218 -0.134404 0
0.723006 -0.139273 0
0.736148 -0.143153 0
0.747781 -0.146011 0
0.758033 -0.147838 0
0.767027 -0.148647 0
0.774878 -0.148467 0
0.781692 -0.147345 0
0.787569 -0.145340 0
0.792597 -0.142525 0
0.796858 -0.138981 0
0.800427 -0.134792 0
0.803372 -0.130047 0
0.805758 -0.124835 0
0.807641 -0.119246 0
0.809073 -0.113366 0
0.810101 -0.107279 0