# vtk DataFile Version 2.0
generated by CFD-lab course output (written by Tobias Neckel) 
ASCII

DATASET STRUCTURED_GRID
DIMENSIONS  101 21 1 
POINTS 2121 float

0.000000 0.000000 0
0.100000 0.000000 0
0.200000 0.000000 0
0.300000 0.000000 0
0.400000 0.000000 0
0.500000 0.000000 0
0.600000 0.000000 0
0.700000 0.000000 0
0.800000 0.000000 0
0.900000 0.000000 0
1.000000 0.000000 0
1.100000 0.000000 0
1.200000 0.000000 0
1.300000 0.000000 0
1.400000 0.000000 0
1.500000 0.000000 0
1.600000 0.000000 0
1.700000 0.000000 0
1.800000 0.000000 0
1.900000 0.000000 0
2.000000 0.000000 0
2.100000 0.000000 0
2.200000 0.000000 0
2.300000 0.000000 0
2.400000 0.000000 0
2.500000 0.000000 0
2.600000 0.000000 0
2.700000 0.000000 0
2.800000 0.000000 0
2.900000 0.000000 0
3.000000 0.000000 0
3.100000 0.000000 0
3.200000 0.000000 0
3.300000 0.000000 0
3.400000 0.000000 0
3.500000 0.000000 0
3.600000 0.000000 0
3.700000 0.000000 0
3.800000 0.000000 0
3.900000 0.000000 0
4.000000 0.000000 0
4.100000 0.000000 0
4.200000 0.000000 0
4.300000 0.000000 0
4.400000 0.000000 0
4.500000 0.000000 0
4.600000 0.000000 0
4.700000 0.000000 0
4.800000 0.000000 0
4.900000 0.000000 0
5.000000 0.000000 0
5.100000 0.000000 0
5.200000 0.000000 0
5.300000 0.000000 0
5.400000 0.000000 0
5.500000 0.000000 0
5.600000 0.000000 0
5.700000 0.000000 0
5.800000 0.000000 0
5.900000 0.000000 0
6.000000 0.000000 0
6.100000 0.000000 0
6.200000 0.000000 0
6.300000 0.000000 0
6.400000 0.000000 0
6.500000 0.000000 0
6.600000 0.000000 0
6.700000 0.000000 0
6.800000 0.000000 0
6.900000 0.000000 0
7.000000 0.000000 0
7.100000 0.000000 0
7.200000 0.000000 0
7.300000 0.000000 0
7.400000 0.000000 0
7.500000 0.000000 0
7.600000 0.000000 0
7.700000 0.000000 0
7.800000 0.000000 0
7.900000 0.000000 0
8.000000 0.000000 0
8.100000 0.000000 0
8.200000 0.000000 0
8.300000 0.000000 0
8.400000 0.000000 0
8.500000 0.000000 0
8.600000 0.000000 0
8.700000 0.000000 0
8.800000 0.000000 0
8.900000 0.000000 0
9.000000 0.000000 0
9.100000 0.000000 0
9.200000 0.000000 0
9.300000 0.000000 0
9.400000 0.000000 0
9.500000 0.000000 0
9.600000 0.000000 0
9.700000 0.000000 0
9.800000 0.000000 0
9.900000 0.000000 0
10.000000 0.000000 0
0.000000 0.100000 0
0.100000 0.100000 0
0.200000 0.100000 0
0.300000 0.100000 0
0.400000 0.100000 0
0.500000 0.100000 0
0.600000 0.100000 0
0.700000 0.100000 0
0.800000 0.100000 0
0.900000 0.100000 0
1.000000 0.100000 0
1.100000 0.100000 0
1.200000 0.100000 0
1.300000 0.100000 0
1.400000 0.100000 0
1.500000 0.100000 0
1.600000 0.100000 0
1.700000 0.100000 0
1.800000 0.100000 0
1.900000 0.100000 0
2.000000 0.100000 0
2.100000 0.100000 0
2.200000 0.100000 0
2.300000 0.100000 0
2.400000 0.100000 0
2.500000 0.100000 0
2.600000 0.100000 0
2.700000 0.100000 0
2.800000 0.100000 0
2.900000 0.100000 0
3.000000 0.100000 0
3.100000 0.100000 0
3.200000 0.100000 0
3.300000 0.100000 0
3.400000 0.100000 0
3.500000 0.100000 0
3.600000 0.100000 0
3.700000 0.100000 0
3.800000 0.100000 0
3.900000 0.100000 0
4.000000 0.100000 0
4.100000 0.100000 0
4.200000 0.100000 0
4.300000 0.100000 0
4.400000 0.100000 0
4.500000 0.100000 0
4.600000 0.100000 0
4.700000 0.100000 0
4.800000 0.100000 0
4.900000 0.100000 0
5.000000 0.100000 0
5.100000 0.100000 0
5.200000 0.100000 0
5.300000 0.100000 0
5.400000 0.100000 0
5.500000 0.100000 0
5.600000 0.100000 0
5.700000 0.100000 0
5.800000 0.100000 0
5.900000 0.100000 0
6.000000 0.100000 0
6.100000 0.100000 0
6.200000 0.100000 0
6.300000 0.100000 0
6.400000 0.100000 0
6.500000 0.100000 0
6.600000 0.100000 0
6.700000 0.100000 0
6.800000 0.100000 0
6.900000 0.100000 0
7.000000 0.100000 0
7.100000 0.100000 0
7.200000 0.100000 0
7.300000 0.100000 0
7.400000 0.100000 0
7.500000 0.100000 0
7.600000 0.100000 0
7.700000 0.100000 0
7.800000 0.100000 0
7.900000 0.100000 0
8.000000 0.100000 0
8.100000 0.100000 0
8.200000 0.100000 0
8.300000 0.100000 0
8.400000 0.100000 0
8.500000 0.100000 0
8.600000 0.100000 0
8.700000 0.100000 0
8.800000 0.100000 0
8.900000 0.100000 0
9.000000 0.100000 0
9.100000 0.100000 0
9.200000 0.100000 0
9.300000 0.100000 0
9.400000 0.100000 0
9.500000 0.100000 0
9.600000 0.100000 0
9.700000 0.100000 0
9.800000 0.100000 0
9.900000 0.100000 0
10.000000 0.100000 0
0.000000 0.200000 0
0.100000 0.200000 0
0.200000 0.200000 0
0.300000 0.200000 0
0.400000 0.200000 0
0.500000 0.200000 0
0.600000 0.200000 0
0.700000 0.200000 0
0.800000 0.200000 0
0.900000 0.200000 0
1.000000 0.200000 0
1.100000 0.200000 0
1.200000 0.200000 0
1.300000 0.200000 0
1.400000 0.200000 0
1.500000 0.200000 0
1.600000 0.200000 0
1.700000 0.200000 0
1.800000 0.200000 0
1.900000 0.200000 0
2.000000 0.200000 0
2.100000 0.200000 0
2.200000 0.200000 0
2.300000 0.200000 0
2.400000 0.200000 0
2.500000 0.200000 0
2.600000 0.200000 0
2.700000 0.200000 0
2.800000 0.200000 0
2.900000 0.200000 0
3.000000 0.200000 0
3.100000 0.200000 0
3.200000 0.200000 0
3.300000 0.200000 0
3.400000 0.200000 0
3.500000 0.200000 0
3.600000 0.200000 0
3.700000 0.200000 0
3.800000 0.200000 0
3.900000 0.200000 0
4.000000 0.200000 0
4.100000 0.200000 0
4.200000 0.200000 0
4.300000 0.200000 0
4.400000 0.200000 0
4.500000 0.200000 0
4.600000 0.200000 0
4.700000 0.200000 0
4.800000 0.200000 0
4.900000 0.200000 0
5.000000 0.200000 0
5.100000 0.200000 0
5.200000 0.200000 0
5.300000 0.200000 0
5.400000 0.200000 0
5.500000 0.200000 0
5.600000 0.200000 0
5.700000 0.200000 0
5.800000 0.200000 0
5.900000 0.200000 0
6.000000 0.200000 0
6.100000 0.200000 0
6.200000 0.200000 0
6.300000 0.200000 0
6.400000 0.200000 0
6.500000 0.200000 0
6.600000 0.200000 0
6.700000 0.200000 0
6.800000 0.200000 0
6.900000 0.200000 0
7.000000 0.200000 0
7.100000 0.200000 0
7.200000 0.200000 0
7.300000 0.200000 0
7.400000 0.200000 0
7.500000 0.200000 0
7.600000 0.200000 0
7.700000 0.200000 0
7.800000 0.200000 0
7.900000 0.200000 0
8.000000 0.200000 0
8.100000 0.200000 0
8.200000 0.200000 0
8.300000 0.200000 0
8.400000 0.200000 0
8.500000 0.200000 0
8.600000 0.200000 0
8.700000 0.200000 0
8.800000 0.200000 0
8.900000 0.200000 0
9.000000 0.200000 0
9.100000 0.200000 0
9.200000 0.200000 0
9.300000 0.200000 0
9.400000 0.200000 0
9.500000 0.200000 0
9.600000 0.200000 0
9.700000 0.200000 0
9.800000 0.200000 0
9.900000 0.200000 0
10.000000 0.200000 0
0.000000 0.300000 0
0.100000 0.300000 0
0.200000 0.300000 0
0.300000 0.300000 0
0.400000 0.300000 0
0.500000 0.300000 0
0.600000 0.300000 0
0.700000 0.300000 0
0.800000 0.300000 0
0.900000 0.300000 0
1.000000 0.300000 0
1.100000 0.300000 0
1.200000 0.300000 0
1.300000 0.300000 0
1.400000 0.300000 0
1.500000 0.300000 0
1.600000 0.300000 0
1.700000 0.300000 0
1.800000 0.300000 0
1.900000 0.300000 0
2.000000 0.300000 0
2.100000 0.300000 0
2.200000 0.300000 0
2.300000 0.300000 0
2.400000 0.300000 0
2.500000 0.300000 0
2.600000 0.300000 0
2.700000 0.300000 0
2.800000 0.300000 0
2.900000 0.300000 0
3.000000 0.300000 0
3.100000 0.300000 0
3.200000 0.300000 0
3.300000 0.300000 0
3.400000 0.300000 0
3.500000 0.300000 0
3.600000 0.300000 0
3.700000 0.300000 0
3.800000 0.300000 0
3.900000 0.300000 0
4.000000 0.300000 0
4.100000 0.300000 0
4.200000 0.300000 0
4.300000 0.300000 0
4.400000 0.300000 0
4.500000 0.300000 0
4.600000 0.300000 0
4.700000 0.300000 0
4.800000 0.300000 0
4.900000 0.300000 0
5.000000 0.300000 0
5.100000 0.300000 0
5.200000 0.300000 0
5.300000 0.300000 0
5.400000 0.300000 0
5.500000 0.300000 0
5.600000 0.300000 0
5.700000 0.300000 0
5.800000 0.300000 0
5.900000 0.300000 0
6.000000 0.300000 0
6.100000 0.300000 0
6.200000 0.300000 0
6.300000 0.300000 0
6.400000 0.300000 0
6.500000 0.300000 0
6.600000 0.300000 0
6.700000 0.300000 0
6.800000 0.300000 0
6.900000 0.300000 0
7.000000 0.300000 0
7.100000 0.300000 0
7.200000 0.300000 0
7.300000 0.300000 0
7.400000 0.300000 0
7.500000 0.300000 0
7.600000 0.300000 0
7.700000 0.300000 0
7.800000 0.300000 0
7.900000 0.300000 0
8.000000 0.300000 0
8.100000 0.300000 0
8.200000 0.300000 0
8.300000 0.300000 0
8.400000 0.300000 0
8.500000 0.300000 0
8.600000 0.300000 0
8.700000 0.300000 0
8.800000 0.300000 0
8.900000 0.300000 0
9.000000 0.300000 0
9.100000 0.300000 0
9.200000 0.300000 0
9.300000 0.300000 0
9.400000 0.300000 0
9.500000 0.300000 0
9.600000 0.300000 0
9.700000 0.300000 0
9.800000 0.300000 0
9.900000 0.300000 0
10.000000 0.300000 0
0.000000 0.400000 0
0.100000 0.400000 0
0.200000 0.400000 0
0.300000 0.400000 0
0.400000 0.400000 0
0.500000 0.400000 0
0.600000 0.400000 0
0.700000 0.400000 0
0.800000 0.400000 0
0.900000 0.400000 0
1.000000 0.400000 0
1.100000 0.400000 0
1.200000 0.400000 0
1.300000 0.400000 0
1.400000 0.400000 0
1.500000 0.400000 0
1.600000 0.400000 0
1.700000 0.400000 0
1.800000 0.400000 0
1.900000 0.400000 0
2.000000 0.400000 0
2.100000 0.400000 0
2.200000 0.400000 0
2.300000 0.400000 0
2.400000 0.400000 0
2.500000 0.400000 0
2.600000 0.400000 0
2.700000 0.400000 0
2.800000 0.400000 0
2.900000 0.400000 0
3.000000 0.400000 0
3.100000 0.400000 0
3.200000 0.400000 0
3.300000 0.400000 0
3.400000 0.400000 0
3.500000 0.400000 0
3.600000 0.400000 0
3.700000 0.400000 0
3.800000 0.400000 0
3.900000 0.400000 0
4.000000 0.400000 0
4.100000 0.400000 0
4.200000 0.400000 0
4.300000 0.400000 0
4.400000 0.400000 0
4.500000 0.400000 0
4.600000 0.400000 0
4.700000 0.400000 0
4.800000 0.400000 0
4.900000 0.400000 0
5.000000 0.400000 0
5.100000 0.400000 0
5.200000 0.400000 0
5.300000 0.400000 0
5.400000 0.400000 0
5.500000 0.400000 0
5.600000 0.400000 0
5.700000 0.400000 0
5.800000 0.400000 0
5.900000 0.400000 0
6.000000 0.400000 0
6.100000 0.400000 0
6.200000 0.400000 0
6.300000 0.400000 0
6.400000 0.400000 0
6.500000 0.400000 0
6.600000 0.400000 0
6.700000 0.400000 0
6.800000 0.400000 0
6.900000 0.400000 0
7.000000 0.400000 0
7.100000 0.400000 0
7.200000 0.400000 0
7.300000 0.400000 0
7.400000 0.400000 0
7.500000 0.400000 0
7.600000 0.400000 0
7.700000 0.400000 0
7.800000 0.400000 0
7.900000 0.400000 0
8.000000 0.400000 0
8.100000 0.400000 0
8.200000 0.400000 0
8.300000 0.400000 0
8.400000 0.400000 0
8.500000 0.400000 0
8.600000 0.400000 0
[...]
POINT_DATA 2121 

VECTORS velocity float
0.000000 0.000000 0
0.000000 0.000000 0
0.000000 0.000000 0
0.000000 0.000000 0
0.000000 0.000000 0
0.000000 0.000000 0
0.000000 0.000000 0
0.000000 0.000000 0
0.000000 0.000000 0
0.000000 0.000000 0
0.000000 0.000000 0
-0.000000 0.000000 0
0.000000 0.000000 0
0.000000 0.000000 0
0.000001 0.000000 0
0.000000 0.000000 0
-0.000000 0.000000 0
-0.000000 0.000000 0
-0.000000 0.000000 0
0.000000 0.000000 0
0.000000 0.000000 0
0.000000 0.000000 0
-0.000000 0.000000 0
-0.000000 0.000000 0
-0.000000 0.000000 0
0.000000 0.000000 0
0.000000 0.000000 0
0.000000 0.000000 0
-0.000000 0.000000 0
-0.000000 0.000000 0
-0.000000 0.000000 0
0.000000 0.000000 0
0.000000 0.000000 0
0.000000 0.000000 0
0.000000 0.000000 0
-0.000000 0.000000 0
-0.000000 0.000000 0
-0.000000 0.000000 0
0.000000 0.000000 0
0.000000 0.000000 0
-0.000000 0.000000 0
-0.000000 0.000000 0
-0.000000 0.000000 0
-0.000000 0.000000 0
0.000000 0.000000 0
0.000000 0.000000 0
0.000000 0.000000 0
-0.000000 0.000000 0
-0.000000 0.000000 0
-0.000000 0.000000 0
-0.000000 0.000000 0
0.000000 0.000000 0
0.000000 0.000000 0
-0.000000 0.000000 0
-0.000000 0.000000 0
-0.000000 0.000000 0
-0.000000 0.000000 0
-0.000000 0.000000 0
-0.000000 0.000000 0
-0.000000 0.000000 0
-0.000000 0.000000 0
-0.000000 0.000000 0
-0.000000 0.000000 0
-0.000000 0.000000 0
-0.000000 0.000000 0
-0.000000 0.000000 0
-0.000000 0.000000 0
-0.000000 0.000000 0
-0.000000 0.000000 0
-0.000000 0.000000 0
-0.000000 0.000000 0
-0.000000 0.000000 0
-0.000000 0.000000 0
-0.000000 0.000000 0
-0.000000 0.000000 0
-0.000000 0.000000 0
-0.000000 0.000000 0
-0.000000 0.000000 0
-0.000000 0.000000 0
-0.000000 0.000000 0
-0.000000 0.000000 0
-0.000000 0.000000 0
-0.000000 0.000000 0
-0.000000 0.000000 0
-0.000000 0.000000 0
-0.000000 0.000000 0
-0.000000 0.000000 0
-0.000000 0.000000 0
-0.000000 0.000000 0
-0.000000 0.000000 0
-0.000000 0.000000 0
-0.000000 0.000000 0
-0.000000 0.000000 0
-0.000000 0.000000 0
-0.000000 0.000000 0
-0.000000 0.000000 0
-0.000000 0.000000 0
-0.000000 0.000000 0
-0.000000 0.000000 0
-0.000000 0.000000 0
-0.000000 0.000000 0
0.000000 0.000000 0
0.000000 0.000000 0
0.000000 0.000000 0
0.000000 0.000000 0
0.000000 0.000000 0
0.000000 0.000000 0
0.000000 0.000000 0
0.000000 0.000000 0
0.000000 0.000000 0
0.000000 -0.000189 0
0.000000 -0.000000 0
-0.002139 0.001757 0
-0.008371 0.003961 0
-0.016813 0.005085 0
-0.026022 0.005433 0
-0.035301 0.005467 0
-0.044433 0.005451 0
-0.053427 0.005488 0
-0.062358 0.005600 0
-0.071301 0.005771 0
-0.080283 0.005969 0
-0.089270 0.006141 0
-0.098137 0.006223 0
-0.106662 0.006141 0
-0.114529 0.005830 0
-0.121367 0.005254 0
-0.126806 0.004415 0
-0.130536 0.003343 0
-0.132318 0.002087 0
-0.132007 0.000731 0
-0.129573 -0.000655 0
-0.125129 -0.002029 0
-0.118866 -0.003329 0
-0.111028 -0.004492 0
-0.101859 -0.005507 0
-0.091563 -0.006379 0
-0.080338 -0.007083 0
-0.068430 -0.007588 0
-0.056091 -0.007905 0
-0.043543 -0.008119 0
-0.030844 -0.008227 0
-0.018196 -0.008160 0
-0.005749 -0.007996 0
0.006300 -0.007769 0
0.017847 -0.007439 0
0.028828 -0.007022 0
0.039190 -0.006561 0
0.048906 -0.006089 0
0.057959 -0.005615 0
0.066348 -0.005147 0
0.074075 -0.004688 0
0.081156 -0.004243 0
0.087607 -0.003818 0
0.093454 -0.003415 0
0.098726 -0.003037 0
0.103454 -0.002685 0
0.107672 -0.002360 0
0.111415 -0.002062 0
0.114720 -0.001790 0
0.117621 -0.001545 0
0.120154 -0.001325 0
0.122355 -0.001129 0
0.124254 -0.000955 0
0.125885 -0.000802 0
0.127275 -0.000668 0
0.128455 -0.000552 0
0.129447 -0.000452 0
0.130278 -0.000366 0
0.130967 -0.000293 0
0.131536 -0.000233 0
0.132001 -0.000182 0
0.132379 -0.000140 0
0.132684 -0.000107 0
0.132929 -0.000080 0
0.133125 -0.000060 0
0.133281 -0.000044 0
0.133407 -0.000033 0
0.133509 -0.000026 0
0.133594 -0.000022 0
0.133667 -0.000020 0
0.133733 -0.000021 0
0.133795 -0.000023 0
0.133858 -0.000026 0
0.133922 -0.000030 0
0.133990 -0.000035 0
0.134063 -0.000041 0
0.134143 -0.000046 0
0.134229 -0.000052 0
0.134323 -0.000057 0
0.134423 -0.000061 0
0.134528 -0.000065 0
0.134638 -0.000067 0
0.134751 -0.000068 0
0.134865 -0.000067 0
0.134975 -0.000064 0
0.135079 -0.000058 0
0.135171 -0.000048 0
0.135246 -0.000035 0
0.135298 -0.000020 0
0.135322 -0.000006 0
0.135323 -0.000000 0
0.000000 0.000000 0
0.000000 0.000000 0
0.000000 0.000000 0
0.000000 0.000000 0
0.000000 0.000000 0
0.000000 0.000000 0
0.000000 0.000000 0
0.000000 0.000000 0
0.000000 0.000000 0
0.000000 -0.002138 0
0.000000 0.000000 0
-0.005614 0.008371 0
-0.017549 0.014675 0
-0.032199 0.017653 0
-0.047497 0.018489 0
-0.062512 0.018411 0
-0.076948 0.018125 0
-0.090793 0.017926 0
-0.104123 0.017875 0
-0.116995 0.017926 0
-0.129403 0.017970 0
-0.141248 0.017854 0
-0.152307 0.017391 0
-0.162234 0.016392 0
-0.170560 0.014706 0
-0.176758 0.012278 0
-0.180336 0.009169 0
-0.180947 0.005511 0
-0.178348 0.001470 0
-0.172711 -0.002745 0
-0.164264 -0.006878 0
-0.153349 -0.010706 0
-0.140331 -0.014100 0
-0.125590 -0.017008 0
-0.109473 -0.019465 0
-0.092253 -0.021521 0
-0.074168 -0.023133 0
-0.055495 -0.024247 0
-0.036477 -0.024887 0
-0.017300 -0.025247 0
0.001668 -0.025347 0
0.020297 -0.025095 0
0.038483 -0.024496 0
0.056036 -0.023596 0
0.072862 -0.022528 0
0.088905 -0.021343 0
0.104127 -0.020078 0
0.118487 -0.018769 0
0.131962 -0.017442 0
0.144539 -0.016116 0
0.156222 -0.014808 0
0.167020 -0.013532 0
0.176955 -0.012299 0
0.186051 -0.011119 0
0.194343 -0.010000 0
0.201865 -0.008946 0
0.208658 -0.007961 0
0.214763 -0.007048 0
0.220226 -0.006206 0
0.225091 -0.005435 0
0.229402 -0.004734 0
0.233204 -0.004100 0
0.236542 -0.003530 0
0.239456 -0.003021 0
0.241989 -0.002570 0
0.244178 -0.002172 0
0.246060 -0.001823 0
0.247671 -0.001520 0
0.249041 -0.001258 0
0.250200 -0.001034 0
0.251176 -0.000843 0
0.251994 -0.000683 0
0.252676 -0.000550 0
0.253243 -0.000440 0
0.253714 -0.000352 0
0.254104 -0.000282 0
0.254427 -0.000228 0
0.254698 -0.000187 0
0.254927 -0.000158 0
0.255124 -0.000139 0
0.255297 -0.000128 0
0.255453 -0.000125 0
0.255599 -0.000126 0
0.255739 -0.000132 0
0.255878 -0.000141 0
0.256018 -0.000153 0
0.256163 -0.000166 0
0.256314 -0.000180 0
0.256472 -0.000193 0
0.256637 -0.000206 0
0.256809 -0.000216 0
0.256987 -0.000223 0
0.257168 -0.000226 0
0.257350 -0.000224 0
0.257529 -0.000214 0
0.257699 -0.000196 0
0.257852 -0.000167 0
0.257982 -0.000127 0
0.258076 -0.000076 0
0.258125 -0.000025 0
0.258125 -0.000000 0
0.000000 0.000000 0
0.000000 0.000000 0
0.000000 0.000000 0
0.000000 0.000000 0
0.000000 0.000000 0
0.000000 0.000000 0
0.000000 0.000000 0
0.000000 0.000000 0
0.000000 0.000000 0
0.000000 -0.005803 0
0.000000 0.000000 0
-0.008598 0.019307 0
-0.024779 0.030547 0
-0.043141 0.035033 0
-0.061256 0.035745 0
-0.078235 0.034916 0
-0.093869 0.033731 0
-0.108198 0.032663 0
-0.121313 0.031802 0
-0.133256 0.031052 0
-0.143995 0.030221 0
-0.153408 0.029045 0
-0.161245 0.027209 0
-0.167137 0.024394 0
-0.170565 0.020355 0
-0.170935 0.015031 0
-0.167719 0.008603 0
-0.160668 0.001354 0
-0.150445 -0.006149 0
-0.137619 -0.013354 0
-0.122547 -0.020017 0
-0.105657 -0.025962 0
-0.087249 -0.031088 0
-0.067656 -0.035350 0
-0.047136 -0.038844 0
-0.026009 -0.041685 0
-0.004612 -0.043841 0
0.016884 -0.045279 0
0.038345 -0.046101 0
0.059634 -0.046264 0
0.080435 -0.045824 0
0.100656 -0.044975 0
0.120206 -0.043735 0
0.139070 -0.042148 0
0.157182 -0.040307 0
0.174479 -0.038287 0
0.190919 -0.036144 0
0.206472 -0.033924 0
0.221117 -0.031667 0
0.234847 -0.029406 0
0.247664 -0.027168 0
0.259581 -0.024976 0
0.270615 -0.022850 0
0.280791 -0.020803 0
0.290139 -0.018850 0
0.298692 -0.017000 0
0.306486 -0.015258 0
0.313561 -0.013630 0
0.319958 -0.012118 0
0.325717 -0.010721 0
0.330881 -0.009439 0
0.335492 -0.008268 0
0.339593 -0.007207 0
0.343223 -0.006249 0
0.346424 -0.005389 0
0.349234 -0.004623 0
0.351689 -0.003944 0
0.353825 -0.003346 0
0.355676 -0.002823 0
0.357272 -0.002368 0
0.358642 -0.001976 0
0.359815 -0.001641 0
0.360814 -0.001356 0
0.361663 -0.001118 0
0.362382 -0.000920 0
0.362991 -0.000758 0
0.363507 -0.000628 0
0.363945 -0.000526 0
0.364319 -0.000447 0
0.364641 -0.000390 0
0.364921 -0.000350 0
0.365169 -0.000325 0
0.365394 -0.000312 0
0.365601 -0.000309 0
0.365797 -0.000315 0
0.365987 -0.000326 0
0.366175 -0.000342 0
0.366363 -0.000360 0
0.366554 -0.000380 0
0.366749 -0.000398 0
0.366949 -0.000415 0
0.367154 -0.000427 0
0.367362 -0.000432 0
0.367571 -0.000428 0
0.367778 -0.000412 0
0.367976 -0.000381 0
0.368160 -0.000331 0
0.368318 -0.000259 0
0.368439 -0.000163 0
0.368506 -0.000055 0
0.368507 -0.000000 0
0.000000 0.000000 0
0.000000 0.000000 0
0.000000 0.000000 0
0.000000 0.000000 0
0.000000 0.000000 0
0.000000 0.000000 0
0.000000 0.000000 0
0.000000 0.000000 0
0.000000 0.000000 0
0.000000 -0.010736 0
0.000000 0.000000 0
-0.010684 0.033150 0
-0.028992 0.049219 0
-0.048088 0.054130 0
-0.065511 0.053581 0
-0.080662 0.051021 0
-0.093565 0.048087 0
-0.104393 0.045370 0
-0.113299 0.042934 0
-0.120315 0.040608 0
-0.125373 0.038121 0
-0.128360 0.035103 0
-0.128990 0.031120 0
-0.126897 0.025712 0
-0.121577 0.018505 0
-0.112285 0.009432 0
-0.099178 -0.001099 0
-0.083323 -0.011764 0
-0.065589 -0.021579 0
-0.046362 -0.030643 0
-0.026126 -0.038839 0
-0.005120 -0.046004 0
0.016462 -0.052102 0
0.038456 -0.057121 0
0.060706 -0.061112 0
0.082973 -0.064044 0
0.105011 -0.066027 0
0.126702 -0.067204 0
0.147953 -0.067637 0
0.168633 -0.067337 0
0.188759 -0.066369 0
0.208229 -0.064866 0
0.226967 -0.062910 0
0.244950 -0.060572 0
0.262148 -0.057936 0
0.278528 -0.055080 0
0.294069 -0.052071 0
0.308754 -0.048967 0
0.322578 -0.045817 0
0.335542 -0.042663 0
0.347657 -0.039542 0
0.358938 -0.036482 0
0.369406 -0.033509 0
0.379087 -0.030643 0
0.388009 -0.027900 0
0.396205 -0.025293 0
0.403707 -0.022831 0
0.410551 -0.020519 0
0.416773 -0.018361 0
0.422410 -0.016358 0
0.427499 -0.014509 0
0.432076 -0.012812 0
0.436179 -0.011261 0
0.439841 -0.009853 0
0.443099 -0.008580 0
0.445986 -0.007437 0
0.448533 -0.006415 0
0.450773 -0.005507 0
0.452734 -0.004704 0
0.454444 -0.004000 0
0.455929 -0.003386 0
0.457214 -0.002855 0
0.458322 -0.002398 0
0.459274 -0.002009 0
0.460089 -0.001681 0
0.460786 -0.001407 0
0.461381 -0.001182 0
0.461889 -0.000999 0
0.462322 -0.000854 0
0.462695 -0.000741 0
0.463016 -0.000657 0
0.463297 -0.000597 0
0.463545 -0.000558 0
0.463768 -0.000536 0
0.463972 -0.000528 0
0.464164 -0.000530 0
0.464347 -0.000542 0
0.464526 -0.000559 0
0.464703 -0.000580 0
0.464881 -0.000601 0
0.465062 -0.000621 0
0.465246 -0.000636 0
0.465433 -0.000643 0
0.465622 -0.000639 0
0.465811 -0.000619 0
0.465996 -0.000578 0
0.466171 -0.000509 0
0.466327 -0.000407 0
0.466451 -0.000264 0
0.466523 -0.000092 0
0.466523 -0.000001 0
0.000000 0.000000 0
0.000000 0.000000 0
0.000000 0.000000 0
0.000000 0.000000 0
0.000000 0.000000 0
0.000000 0.000000 0
0.000000 0.000000 0
0.000000 0.000000 0
0.000000 0.000000 0
0.000000 -0.016487 0
0.000000 -0.000001 0
-0.012116 0.048298 0
-0.030125 0.067951 0
-0.046481 0.071551 0
-0.059389 0.068317 0
-0.068897 0.062967 0
-0.075384 0.057462 0
-0.079180 0.052398 0
-0.080519 0.047725 0
-0.079405 0.043126 0
-0.075647 0.038265 0
-0.069117 0.032660 0
-0.059413 0.025745 0
-0.045793 0.016981 0
-0.028278 0.005743 0
-0.008064 -0.007368 0
0.013694 -0.020359 0
0.035989 -0.032236 0
0.058725 -0.043109 0
0.081762 -0.052817 0
0.104772 -0.061259 0
0.127655 -0.068549 0
0.150279 -0.074664 0
0.172594 -0.079593 0
0.194496 -0.083361 0
0.215919 -0.085990 0
0.236837 -0.087570 0
0.257158 -0.088221 0
0.276807 -0.088031 0
0.295728 -0.087070 0
0.313926 -0.085419 0
0.331373 -0.083183 0
0.348040 -0.080457 0
0.363918 -0.077329 0
0.378997 -0.073886 0
0.393274 -0.070208 0
0.406747 -0.066369 0
0.419418 -0.062433 0
0.431296 -0.058456 0
0.442393 -0.054486 0
0.452729 -0.050564 0
0.462325 -0.046726 0
0.471206 -0.042999 0
0.479401 -0.039407 0
0.486939 -0.035968 0
0.493851 -0.032697 0
0.500171 -0.029604 0
0.505931 -0.026696 0
0.511164 -0.023977 0
0.515903 -0.021447 0
0.520181 -0.019105 0
0.524030 -0.016948 0
0.527480 -0.014972 0
0.530563 -0.013169 0
0.533306 -0.011534 0
0.535739 -0.010057 0
0.537887 -0.008731 0
0.539777 -0.007546 0
0.541432 -0.006494 0
0.542874 -0.005563 0
0.544127 -0.004747 0
0.545208 -0.004034 0
0.546138 -0.003416 0
0.546932 -0.002885 0
0.547609 -0.002432 0
0.548181 -0.002050 0
0.548663 -0.001730 0
0.549067 -0.001467 0
0.549405 -0.001254 0
0.549687 -0.001084 0
0.549921 -0.000952 0
0.550117 -0.000853 0
0.550282 -0.000783 0
0.550423 -0.000737 0
0.550545 -0.000711 0
0.550654 -0.000701 0
0.550753 -0.000704 0
0.550848 -0.000716 0
0.550941 -0.000735 0
0.551034 -0.000757 0
0.551131 -0.000779 0
0.551231 -0.000798 0
0.551338 -0.000808 0
0.551449 -0.000807 0
0.551566 -0.000787 0
0.551686 -0.000741 0
0.551806 -0.000662 0
0.551919 -0.000538 0
0.552014 -0.000359 0
0.552074 -0.000127 0
0.552074 -0.000001 0
0.000000 0.000000 0
0.000000 0.000000 0
0.000000 0.000000 0
0.000000 0.000000 0
0.000000 0.000000 0
0.000000 0.000000 0
0.000000 0.000000 0
0.000000 0.000000 0
0.000000 0.000000 0
0.000000 -0.022852 0
0.000000 -0.000002 0
-0.013427 0.063274 0
-0.027948 0.083585 0
-0.036973 0.083393 0
-0.040715 0.075995 0
-0.040371 0.067015 0
-0.036671 0.058370 0
-0.029888 0.050506 0
-0.020308 0.043161 0
-0.007904 0.035735 0
0.007741 0.027831 0
0.027223 0.018869 0
0.050267 0.007796 0
0.076032 -0.005422 0
0.103336 -0.019224 0
0.130567 -0.032540 0
0.156927 -0.045152 0
0.182575 -0.056795 0
0.207529 -0.067352 0
0.231705 -0.076689 0
0.255177 -0.084732 0
0.277900 -0.091511 0
0.299824 -0.097041 0
0.320938 -0.101338 0
0.341228 -0.104437 0
0.360697 -0.106386 0
0.379365 -0.107265 0
0.397221 -0.107174 0
0.414254 -0.106207 0
0.430458 -0.104456 0
0.445847 -0.102014 0
0.460431 -0.098981 0
0.474218 -0.095455 0
0.487218 -0.091529 0
0.499446 -0.087293 0
0.510916 -0.082830 0
0.521644 -0.078214 0
0.531647 -0.073516 0
0.540945 -0.068793 0
0.549562 -0.064097 0
0.557521 -0.059474 0
0.564850 -0.054959 0
0.571578 -0.050585 0
0.577733 -0.046376 0
0.583347 -0.042351 0
0.588449 -0.038526 0
0.593072 -0.034910 0
0.597246 -0.031512 0
0.601001 -0.028333 0
0.604366 -0.025375 0
0.607371 -0.022636 0
0.610043 -0.020111 0
0.612408 -0.017794 0
0.614492 -0.015679 0
0.616320 -0.013757 0
0.617913 -0.012018 0
0.619294 -0.010453 0
0.620483 -0.009051 0
0.621498 -0.007802 0
0.622358 -0.006695 0
0.623079 -0.005720 0
0.623677 -0.004866 0
0.624165 -0.004122 0
0.624556 -0.003480 0
0.624863 -0.002929 0
0.625096 -0.002461 0
0.625266 -0.002068 0
0.625381 -0.001741 0
0.625450 -0.001473 0
0.625481 -0.001257 0
0.625480 -0.001088 0
0.625454 -0.000958 0
0.625408 -0.000864 0
0.625348 -0.000798 0
0.625277 -0.000758 0
0.625200 -0.000739 0
0.625120 -0.000736 0
0.625040 -0.000746 0
0.624963 -0.000766 0
0.624891 -0.000791 0
0.624827 -0.000818 0
0.624772 -0.000843 0
0.624728 -0.000861 0
0.624697 -0.000868 0
0.624680 -0.000856 0
0.624677 -0.000818 0
0.624688 -0.000742 0
0.624712 -0.000615 0
0.624743 -0.000420 0
0.624770 -0.000152 0
0.624770 -0.000001 0
0.000000 0.000000 0
0.000000 0.000000 0
0.000000 0.000000 0
0.000000 0.000000 0
0.000000 0.000000 0
0.000000 0.000000 0
0.000000 0.000000 0
0.000000 0.000000 0
0.000000 0.000000 0
0.000000 -0.029913 0
0.000000 -0.000002 0
-0.014122 0.076247 0
-0.018881 0.091500 0
-0.013192 0.084317 0
-0.001263 0.071711 0
0.014142 0.058922 0
0.032371 0.046981 0
0.053494 0.036038 0
0.077905 0.025742 0
0.105414 0.015076 0
0.135336 0.003136 0
0.167076 -0.009867 0
0.199766 -0.023062 0
0.231967 -0.036086 0
0.262693 -0.048792 0
0.291928 -0.060959 0
0.319608 -0.072368 0
0.345782 -0.082838 0
0.370509 -0.092238 0
0.393834 -0.100464 0
0.415861 -0.107454 0
0.436652 -0.113197 0
0.456255 -0.117703 0
0.474720 -0.120997 0
0.492097 -0.123120 0
0.508441 -0.124127 0
0.523804 -0.124095 0
0.538230 -0.123111 0
0.551756 -0.121268 0
0.564416 -0.118663 0
0.576248 -0.115392 0
0.587286 -0.111553 0
0.597563 -0.107243 0
0.607110 -0.102557 0
0.615958 -0.097584 0
0.624135 -0.092406 0
0.631669 -0.087100 0
0.638590 -0.081735 0
0.644924 -0.076371 0
0.650700 -0.071062 0
0.655947 -0.065853 0
0.660694 -0.060782 0
0.664970 -0.055881 0
0.668803 -0.051175 0
0.672224 -0.046684 0
0.675259 -0.042423 0
0.677938 -0.038401 0
0.680287 -0.034625 0
0.682333 -0.031097 0
0.684099 -0.027817 0
0.685611 -0.024781 0
0.686891 -0.021985 0
0.687961 -0.019421 0
0.688841 -0.017081 0
0.689550 -0.014955 0
0.690106 -0.013032 0
0.690525 -0.011301 0
0.690823 -0.009751 0
0.691014 -0.008369 0
0.691111 -0.007145 0
0.691126 -0.006065 0
0.691069 -0.005119 0
0.690952 -0.004295 0
0.690781 -0.003583 0
0.690566 -0.002972 0
0.690314 -0.002453 0
0.690031 -0.002016 0
0.689724 -0.001652 0
0.689398 -0.001354 0
0.689057 -0.001114 0
0.688706 -0.000925 0
0.688349 -0.000781 0
0.687989 -0.000677 0
0.687630 -0.000605 0
0.687274 -0.000562 0
0.686924 -0.000543 0
0.686581 -0.000544 0
0.686248 -0.000559 0
0.685927 -0.000586 0
0.685619 -0.000621 0
0.685327 -0.000660 0
0.685052 -0.000699 0
0.684797 -0.000734 0
0.684565 -0.000758 0
0.684359 -0.000767 0
0.684181 -0.000750 0
0.684036 -0.000698 0
0.683928 -0.000593 0
0.683860 -0.000416 0
0.683831 -0.000154 0
0.683831 -0.000002 0
0.000000 0.000000 0
0.000000 0.000000 0
0.000000 0.000000 0
0.000000 0.000000 0
0.000000 0.000000 0
0.000000 0.000000 0
0.000000 0.000000 0
0.000000 0.000000 0
0.000000 0.000000 0
0.000000 -0.036974 0
0.000000 -0.000000 0
-0.005577 0.082159 0
0.015011 0.082658 0
0.046237 0.065773 0
0.080942 0.048656 0
0.117776 0.033379 0
0.155654 0.019021 0
0.193934 0.004977 0
0.232470 -0.008757 0
0.270992 -0.021698 0
0.308821 -0.033834 0
0.344981 -0.045561 0
0.379107 -0.057094 0
0.411155 -0.068348 0
0.441082 -0.079184 0
0.468892 -0.089456 0
0.494639 -0.099008 0
0.518417 -0.107695 0
0.540335 -0.115403 0
0.560506 -0.122040 0
0.579059 -0.127549 0
0.596114 -0.131906 0
0.611778 -0.135109 0
0.626149 -0.137181 0
0.639323 -0.138157 0
0.651389 -0.138092 0
0.662431 -0.137055 0
0.672524 -0.135126 0
0.681735 -0.132393 0
0.690126 -0.128947 0
0.697754 -0.124883 0
0.704672 -0.120296 0
0.710929 -0.115279 0
0.716569 -0.109924 0
0.721635 -0.104318 0
0.726164 -0.098541 0
0.730193 -0.092670 0
0.733756 -0.086770 0
0.736884 -0.080903 0
0.739607 -0.075120 0
0.741957 -0.069467 0
0.743960 -0.063982 0
0.745643 -0.058694 0
0.747034 -0.053630 0
0.748157 -0.048807 0
0.749035 -0.044240 0
0.749691 -0.039938 0
0.750147 -0.035906 0
0.750423 -0.032145 0
0.750538 -0.028654 0
0.750509 -0.025428 0
0.750354 -0.022461 0
0.750087 -0.019744 0
0.749723 -0.017268 0
0.749276 -0.015021 0
0.748757 -0.012993 0
0.748177 -0.011170 0
0.747546 -0.009540 0
0.746873 -0.008090 0
0.746167 -0.006807 0
0.745435 -0.005678 0
0.744682 -0.004691 0
0.743915 -0.003834 0
0.743139 -0.003095 0
0.742357 -0.002462 0
0.741574 -0.001927 0
0.740792 -0.001478 0
0.740015 -0.001107 0
0.739248 -0.000805 0
0.738491 -0.000566 0
0.737747 -0.000380 0
0.737017 -0.000242 0
0.736301 -0.000145 0
0.735602 -0.000083 0
0.734919 -0.000052 0
0.734255 -0.000046 0
0.733611 -0.000060 0
0.732986 -0.000092 0
0.732384 -0.000137 0
0.731804 -0.000191 0
0.731250 -0.000251 0
0.730723 -0.000314 0
0.730226 -0.000374 0
0.729762 -0.000429 0
0.729337 -0.000472 0
0.728956 -0.000495 0
0.728628 -0.000489 0
0.728363 -0.000438 0
0.728174 -0.000323 0
0.728076 -0.000124 0
0.728076 -0.000002 0
-0.500000 0.000000 0
-0.471722 0.000000 0
-0.430282 0.000000 0
-0.388989 0.000000 0
-0.352215 0.000000 0
-0.321412 0.000000 0
-0.297005 0.000000 0
-0.279221 0.000000 0
-0.268992 0.000000 0
-0.270289 -0.035491 0
0.000000 0.000001 0
0.064714 0.061243 0
0.134855 0.039689 0
0.198333 0.018381 0
0.255282 0.000166 0
0.307496 -0.015791 0
0.355880 -0.029172 0
0.400743 -0.040772 0
0.442004 -0.051315 0
0.479909 -0.061279 0
0.514926 -0.070857 0
0.547352 -0.080152 0
0.577256 -0.089233 0
0.604691 -0.098059 0
0.629736 -0.106529 0
0.652484 -0.114518 0
0.673045 -0.121895 0
0.691546 -0.128533 0
0.708119 -0.134325 0
0.722904 -0.139188 0
0.736043 -0.143062 0
0.747673 -0.145915 0
0.757926 -0.147738 0
0.766921 -0.148543 0
0.774773 -0.148360 0
0.781588 -0.147235 0
0.787465 -0.145229 0
0.792494 -0.142415 0
0.796756 -0.138870 0
0.800327 -0.134682 0
0.803275 -0.129938 0
0.805663 -0.124728 0
0.807547 -0.119141 0
0.808980 -0.113263 0
0.810010 -0.107179 0