# vtk DataFile Version 2.0
generated by CFD-lab course output (written by Tobias Neckel) 
ASCII

DATASET STRUCTURED_GRID
DIMENSIONS  101 21 1 
POINTS 2121 float

0.000000 0.000000 0
0.100000 0.000000 0
0.200000 0.000000 0
0.300000 0.000000 0
0.400000 0.000000 0
0.500000 0.000000 0
0.600000 0.000000 0
0.700000 0.000000 0
0.800000 0.000000 0
0.900000 0.000000 0
1.000000 0.000000 0
1.100000 0.000000 0
1.200000 0.000000 0
1.300000 0.000000 0
1.400000 0.000000 0
1.500000 0.000000 0
1.600000 0.000000 0
1.700000 0.000000 0
1.800000 0.000000 0
1.900000 0.000000 0
2.000000 0.000000 0
2.100000 0.000000 0
2.200000 0.000000 0
2.300000 0.000000 0
2.400000 0.000000 0
2.500000 0.000000 0
2.600000 0.000000 0
2.700000 0.000000 0
2.800000 0.000000 0
2.900000 0.000000 0
3.000000 0.000000 0
3.100000 0.000000 0
3.200000 0.000000 0
3.300000 0.000000 0
3.400000 0.000000 0
3.500000 0.000000 0
3.600000 0.000000 0
3.700000 0.000000 0
3.800000 0.000000 0
3.900000 0.000000 0
4.000000 0.000000 0
4.100000 0.000000 0
4.200000 0.000000 0
4.300000 0.000000 0
4.400000 0.000000 0
4.500000 0.000000 0
4.600000 0.000000 0
4.700000 0.000000 0
4.800000 0.000000 0
4.900000 0.000000 0
5.000000 0.000000 0
5.100000 0.000000 0
5.200000 0.000000 0
5.300000 0.000000 0
5.400000 0.000000 0
5.500000 0.000000 0
5.600000 0.000000 0
5.700000 0.000000 0
5.800000 0.000000 0
5.900000 0.000000 0
6.000000 0.000000 0
6.100000 0.000000 0
6.200000 0.000000 0
6.300000 0.000000 0
6.400000 0.000000 0
6.500000 0.000000 0
6.600000 0.000000 0
6.700000 0.000000 0
6.800000 0.000000 0
6.900000 0.000000 0
7.000000 0.000000 0
7.100000 0.000000 0
7.200000 0.000000 0
7.300000 0.000000 0
7.400000 0.000000 0
7.500000 0.000000 0
7.600000 0.000000 0
7.700000 0.000000 0
7.800000 0.000000 0
7.900000 0.000000 0
8.000000 0.000000 0
8.100000 0.000000 0
8.200000 0.000000 0
8.300000 0.000000 0
8.400000 0.000000 0
8.500000 0.000000 0
8.600000 0.000000 0
8.700000 0.000000 0
8.800000 0.000000 0
8.900000 0.000000 0
9.000000 0.000000 0
9.100000 0.000000 0
9.200000 0.000000 0
9.300000 0.000000 0
9.400000 0.000000 0
9.500000 0.000000 0
9.600000 0.000000 0
9.700000 0.000000 0
9.800000 0.000000 0
9.900000 0.000000 0
10.000000 0.000000 0
0.000000 0.100000 0
0.100000 0.100000 0
0.200000 0.100000 0
0.300000 0.100000 0
0.400000 0.100000 0
0.500000 0.100000 0
0.600000 0.100000 0
0.700000 0.100000 0
0.800000 0.100000 0
0.900000 0.100000 0
1.000000 0.100000 0
1.100000 0.100000 0
1.200000 0.100000 0
1.300000 0.100000 0
1.400000 0.100000 0
1.500000 0.100000 0
1.600000 0.100000 0
1.700000 0.100000 0
1.800000 0.100000 0
1.900000 0.100000 0
2.000000 0.100000 0
2.100000 0.100000 0
2.200000 0.100000 0
2.300000 0.100000 0
2.400000 0.100000 0
2.500000 0.100000 0
2.600000 0.100000 0
2.700000 0.100000 0
2.800000 0.100000 0
2.900000 0.100000 0
3.000000 0.100000 0
3.100000 0.100000 0
3.200000 0.100000 0
3.300000 0.100000 0
3.400000 0.100000 0
3.500000 0.100000 0
3.600000 0.100000 0
3.700000 0.100000 0
3.800000 0.100000 0
3.900000 0.100000 0
4.000000 0.100000 0
4.100000 0.100000 0
4.200000 0.100000 0
4.300000 0.100000 0
4.400000 0.100000 0
4.500000 0.100000 0
4.600000 0.100000 0
4.700000 0.100000 0
4.800000 0.100000 0
4.900000 0.100000 0
5.000000 0.100000 0
5.100000 0.100000 0
5.200000 0.100000 0
5.300000 0.100000 0
5.400000 0.100000 0
5.500000 0.100000 0
5.600000 0.100000 0
5.700000 0.100000 0
5.800000 0.100000 0
5.900000 0.100000 0
6.000000 0.100000 0
6.100000 0.100000 0
6.200000 0.100000 0
6.300000 0.100000 0
6.400000 0.100000 0
6.500000 0.100000 0
6.600000 0.100000 0
6.700000 0.100000 0
6.800000 0.100000 0
6.900000 0.100000 0
7.000000 0.100000 0
7.100000 0.100000 0
7.200000 0.100000 0
7.300000 0.100000 0
7.400000 0.100000 0
7.500000 0.100000 0
7.600000 0.100000 0
7.700000 0.100000 0
7.800000 0.100000 0
7.900000 0.100000 0
8.000000 0.100000 0
8.100000 0.100000 0
8.200000 0.100000 0
8.300000 0.100000 0
8.400000 0.100000 0
8.500000 0.100000 0
8.600000 0.100000 0
8.700000 0.100000 0
8.800000 0.100000 0
8.900000 0.100000 0
9.000000 0.100000 0
9.100000 0.100000 0
9.200000 0.100000 0
9.300000 0.100000 0
9.400000 0.100000 0
9.500000 0.100000 0
9.600000 0.100000 0
9.700000 0.100000 0
9.800000 0.100000 0
9.900000 0.100000 0
10.000000 0.100000 0
0.000000 0.200000 0
0.100000 0.200000 0
0.200000 0.200000 0
0.300000 0.200000 0
0.400000 0.200000 0
0.500000 0.200000 0
0.600000 0.200000 0
0.700000 0.200000 0
0.800000 0.200000 0
0.900000 0.200000 0
1.000000 0.200000 0
1.100000 0.200000 0
1.200000 0.200000 0
1.300000 0.200000 0
1.400000 0.200000 0
1.500000 0.200000 0
1.600000 0.200000 0
1.700000 0.200000 0
1.800000 0.200000 0
1.900000 0.200000 0
2.000000 0.200000 0
2.100000 0.200000 0
2.200000 0.200000 0
2.300000 0.200000 0
2.400000 0.200000 0
2.500000 0.200000 0
2.600000 0.200000 0
2.700000 0.200000 0
2.800000 0.200000 0
2.900000 0.200000 0
3.000000 0.200000 0
3.100000 0.200000 0
3.200000 0.200000 0
3.300000 0.200000 0
3.400000 0.200000 0
3.500000 0.200000 0
3.600000 0.200000 0
3.700000 0.200000 0
3.800000 0.200000 0
3.900000 0.200000 0
4.000000 0.200000 0
4.100000 0.200000 0
4.200000 0.200000 0
4.300000 0.200000 0
4.400000 0.200000 0
4.500000 0.200000 0
4.600000 0.200000 0
4.700000 0.200000 0
4.800000 0.200000 0
4.900000 0.200000 0
5.000000 0.200000 0
5.100000 0.200000 0
5.200000 0.200000 0
5.300000 0.200000 0
5.400000 0.200000 0
5.500000 0.200000 0
5.600000 0.200000 0
5.700000 0.200000 0
5.800000 0.200000 0
5.900000 0.200000 0
6.000000 0.200000 0
6.100000 0.200000 0
6.200000 0.200000 0
6.300000 0.200000 0
6.400000 0.200000 0
6.500000 0.200000 0
6.600000 0.200000 0
6.700000 0.200000 0
6.800000 0.200000 0
6.900000 0.200000 0
7.000000 0.200000 0
7.100000 0.200000 0
7.200000 0.200000 0
7.300000 0.200000 0
7.400000 0.200000 0
7.500000 0.200000 0
7.600000 0.200000 0
7.700000 0.200000 0
7.800000 0.200000 0
7.900000 0.200000 0
8.000000 0.200000 0
8.100000 0.200000 0
8.200000 0.200000 0
8.300000 0.200000 0
8.400000 0.200000 0
8.500000 0.200000 0
8.600000 0.200000 0
8.700000 0.200000 0
8.800000 0.200000 0
8.900000 0.200000 0
9.000000 0.200000 0
9.100000 0.200000 0
9.200000 0.200000 0
9.300000 0.200000 0
9.400000 0.200000 0
9.500000 0.200000 0
9.600000 0.200000 0
9.700000 0.200000 0
9.800000 0.200000 0
9.900000 0.200000 0
10.000000 0.200000 0
0.000000 0.300000 0
0.100000 0.300000 0
0.200000 0.300000 0
0.300000 0.300000 0
0.400000 0.300000 0
0.500000 0.300000 0
0.600000 0.300000 0
0.700000 0.300000 0
0.800000 0.300000 0
0.900000 0.300000 0
1.000000 0.300000 0
1.100000 0.300000 0
1.200000 0.300000 0
1.300000 0.300000 0
1.400000 0.300000 0
1.500000 0.300000 0
1.600000 0.300000 0
1.700000 0.300000 0
1.800000 0.300000 0
1.900000 0.300000 0
2.000000 0.300000 0
2.100000 0.300000 0
2.200000 0.300000 0
2.300000 0.300000 0
2.400000 0.300000 0
2.500000 0.300000 0
2.600000 0.300000 0
2.700000 0.300000 0
2.800000 0.300000 0
2.900000 0.300000 0
3.000000 0.300000 0
3.100000 0.300000 0
3.200000 0.300000 0
3.300000 0.300000 0
3.400000 0.300000 0
3.500000 0.300000 0
3.600000 0.300000 0
3.700000 0.300000 0
3.800000 0.300000 0
3.900000 0.300000 0
4.000000 0.300000 0
4.100000 0.300000 0
4.200000 0.300000 0
4.300000 0.300000 0
4.400000 0.300000 0
4.500000 0.300000 0
4.600000 0.300000 0
4.700000 0.300000 0
4.800000 0.300000 0
4.900000 0.300000 0
5.000000 0.300000 0
5.100000 0.300000 0
5.200000 0.300000 0
5.300000 0.300000 0
5.400000 0.300000 0
5.500000 0.300000 0
5.600000 0.300000 0
5.700000 0.300000 0
5.800000 0.300000 0
5.900000 0.300000 0
6.000000 0.300000 0
6.100000 0.300000 0
6.200000 0.300000 0
6.300000 0.300000 0
6.400000 0.300000 0
6.500000 0.300000 0
6.600000 0.300000 0
6.700000 0.300000 0
6.800000 0.300000 0
6.900000 0.300000 0
7.000000 0.300000 0
7.100000 0.300000 0
7.200000 0.300000 0
7.300000 0.300000 0
7.400000 0.300000 0
7.500000 0.300000 0
7.600000 0.300000 0
7.700000 0.300000 0
7.800000 0.300000 0
7.900000 0.300000 0
8.000000 0.300000 0
8.100000 0.300000 0
8.200000 0.300000 0
8.300000 0.300000 0
8.400000 0.300000 0
8.500000 0.300000 0
8.600000 0.300000 0
8.700000 0.300000 0
8.800000 0.300000 0
8.900000 0.300000 0
9.000000 0.300000 0
9.100000 0.300000 0
9.200000 0.300000 0
9.300000 0.300000 0
9.400000 0.300000 0
9.500000 0.300000 0
9.600000 0.300000 0
9.700000 0.300000 0
9.800000 0.300000 0
9.900000 0.300000 0
10.000000 0.300000 0
0.000000 0.400000 0
0.100000 0.400000 0
0.200000 0.400000 0
0.300000 0.400000 0
0.400000 0.400000 0
0.500000 0.400000 0
0.600000 0.400000 0
0.700000 0.400000 0
0.800000 0.400000 0
0.900000 0.400000 0
1.000000 0.400000 0
1.100000 0.400000 0
1.200000 0.400000 0
1.300000 0.400000 0
1.400000 0.400000 0
1.500000 0.400000 0
1.600000 0.400000 0
1.700000 0.400000 0
1.800000 0.400000 0
1.900000 0.400000 0
2.000000 0.400000 0
2.100000 0.400000 0
2.200000 0.400000 0
2.300000 0.400000 0
2.400000 0.400000 0
2.500000 0.400000 0
2.600000 0.400000 0
2.700000 0.400000 0
2.800000 0.400000 0
2.900000 0.400000 0
3.000000 0.400000 0
3.100000 0.400000 0
3.200000 0.400000 0
3.300000 0.400000 0
3.400000 0.400000 0
3.500000 0.400000 0
3.600000 0.400000 0
3.700000 0.400000 0
3.800000 0.400000 0
3.900000 0.400000 0
4.000000 0.400000 0
4.100000 0.400000 0
4.200000 0.400000 0
4.300000 0.400000 0
4.400000 0.400000 0
4.500000 0.400000 0
4.600000 0.400000 0
4.700000 0.400000 0
4.800000 0.400000 0
4.900000 0.400000 0
5.000000 0.400000 0
5.100000 0.400000 0
5.200000 0.400000 0
5.300000 0.400000 0
5.400000 0.400000 0
5.500000 0.400000 0
5.600000 0.400000 0
5.700000 0.400000 0
5.800000 0.400000 0
5.900000 0.400000 0
6.000000 0.400000 0
6.100000 0.400000 0
6.200000 0.400000 0
6.300000 0.400000 0
6.400000 0.400000 0
6.500000 0.400000 0
6.600000 0.400000 0
6.700000 0.400000 0
6.800000 0.400000 0
6.900000 0.400000 0
7.000000 0.400000 0
7.100000 0.400000 0
7.200000 0.400000 0
7.300000 0.400000 0
7.400000 0.400000 0
7.500000 0.400000 0
7.600000 0.400000 0
7.700000 0.400000 0
7.800000 0.400000 0
7.900000 0.400000 0
8.000000 0.400000 0
8.100000 0.400000 0
8.200000 0.400000 0
8.300000 0.400000 0
8.400000 0.400000 0
8.500000 0.400000 0
8.600000 0.400000 0
[...]
POINT_DATA 2121 

VECTORS velocity float
0.000000 0.000000 0
0.000000 0.000000 0
0.000000 0.000000 0
0.000000 0.000000 0
0.000000 0.000000 0
0.000000 0.000000 0
0.000000 0.000000 0
0.000000 0.000000 0
0.000000 0.000000 0
0.000000 0.000000 0
0.000000 0.000000 0
0.000000 0.000000 0
0.000000 0.000000 0
0.000000 0.000000 0
-0.000000 0.000000 0
-0.000000 0.000000 0
0.000000 0.000000 0
0.000000 0.000000 0
0.000001 0.000000 0
0.000001 0.000000 0
0.000002 0.000000 0
0.000003 0.000000 0
0.000005 0.000000 0
0.000007 0.000000 0
0.000010 0.000000 0
0.000013 0.000000 0
0.000016 0.000000 0
0.000018 0.000000 0
0.000021 0.000000 0
0.000022 0.000000 0
0.000023 0.000000 0
0.000023 0.000000 0
0.000021 0.000000 0
0.000019 0.000000 0
0.000016 0.000000 0
0.000012 0.000000 0
0.000008 0.000000 0
0.000004 0.000000 0
-0.000001 0.000000 0
-0.000006 0.000000 0
-0.000012 0.000000 0
-0.000016 0.000000 0
-0.000022 0.000000 0
-0.000026 0.000000 0
-0.000030 0.000000 0
-0.000034 0.000000 0
-0.000037 0.000000 0
-0.000040 0.000000 0
-0.000042 0.000000 0
-0.000045 0.000000 0
-0.000046 0.000000 0
-0.000047 0.000000 0
-0.000048 0.000000 0
-0.000049 0.000000 0
-0.000049 0.000000 0
-0.000049 0.000000 0
-0.000049 0.000000 0
-0.000048 0.000000 0
-0.000047 0.000000 0
-0.000046 0.000000 0
-0.000045 0.000000 0
-0.000043 0.000000 0
-0.000041 0.000000 0
-0.000040 0.000000 0
-0.000038 0.000000 0
-0.000035 0.000000 0
-0.000033 0.000000 0
-0.000031 0.000000 0
-0.000029 0.000000 0
-0.000027 0.000000 0
-0.000024 0.000000 0
-0.000022 0.000000 0
-0.000019 0.000000 0
-0.000017 0.000000 0
-0.000014 0.000000 0
-0.000012 0.000000 0
-0.000010 0.000000 0
-0.000007 0.000000 0
-0.000005 0.000000 0
-0.000003 0.000000 0
-0.000000 0.000000 0
0.000002 0.000000 0
0.000004 0.000000 0
0.000006 0.000000 0
0.000008 0.000000 0
0.000010 0.000000 0
0.000012 0.000000 0
0.000013 0.000000 0
0.000015 0.000000 0
0.000016 0.000000 0
0.000018 0.000000 0
0.000019 0.000000 0
0.000020 0.000000 0
0.000021 0.000000 0
0.000022 0.000000 0
0.000022 0.000000 0
0.000022 0.000000 0
0.000023 0.000000 0
0.000023 0.000000 0
0.000023 0.000000 0
0.000024 0.000000 0
0.000000 0.000000 0
0.000000 0.000000 0
0.000000 0.000000 0
0.000000 0.000000 0
0.000000 0.000000 0
0.000000 0.000000 0
0.000000 0.000000 0
0.000000 0.000000 0
0.000000 0.000000 0
0.000000 -0.000124 0
0.000000 0.000001 0
-0.002243 0.001613 0
-0.008467 0.003806 0
-0.016911 0.004946 0
-0.026148 0.005314 0
-0.035488 0.005372 0
-0.044724 0.005387 0
-0.053880 0.005466 0
-0.063048 0.005633 0
-0.072319 0.005877 0
-0.081740 0.006163 0
-0.091286 0.006438 0
-0.100833 0.006625 0
-0.110138 0.006637 0
-0.118845 0.006391 0
-0.126519 0.005834 0
-0.132710 0.004955 0
-0.137028 0.003781 0
-0.139154 0.002365 0
-0.138877 0.000809 0
-0.136153 -0.000795 0
-0.131110 -0.002395 0
-0.123975 -0.003911 0
-0.115026 -0.005277 0
-0.104529 -0.006494 0
-0.092675 -0.007532 0
-0.079758 -0.008335 0
-0.066087 -0.008898 0
-0.051952 -0.009307 0
-0.037468 -0.009579 0
-0.022851 -0.009639 0
-0.008310 -0.009552 0
0.005894 -0.009373 0
0.019601 -0.009056 0
0.032713 -0.008605 0
0.045151 -0.008082 0
0.056867 -0.007536 0
0.067829 -0.006980 0
0.078021 -0.006421 0
0.087438 -0.005867 0
0.096085 -0.005325 0
0.103977 -0.004800 0
0.111135 -0.004299 0
0.117587 -0.003825 0
0.123365 -0.003379 0
0.128506 -0.002965 0
0.133046 -0.002582 0
0.137027 -0.002232 0
0.140489 -0.001913 0
0.143473 -0.001624 0
0.146017 -0.001365 0
0.148161 -0.001133 0
0.149942 -0.000927 0
0.151396 -0.000746 0
0.152556 -0.000586 0
0.153454 -0.000448 0
0.154119 -0.000328 0
0.154580 -0.000226 0
0.154863 -0.000140 0
0.154994 -0.000070 0
0.154997 -0.000012 0
0.154895 0.000039 0
0.154698 0.000083 0
0.154414 0.000120 0
0.154058 0.000149 0
0.153641 0.000171 0
0.153174 0.000186 0
0.152669 0.000196 0
0.152133 0.000201 0
0.151576 0.000203 0
0.151003 0.000201 0
0.150421 0.000196 0
0.149836 0.000188 0
0.149254 0.000178 0
0.148679 0.000166 0
0.148117 0.000151 0
0.147574 0.000133 0
0.147054 0.000114 0
0.146562 0.000092 0
0.146104 0.000067 0
0.145684 0.000039 0
0.145309 0.000007 0
0.144983 -0.000028 0
0.144709 -0.000063 0
0.144491 -0.000097 0
0.144331 -0.000128 0
0.144227 -0.000152 0
0.144174 -0.000164 0
0.144151 -0.000153 0
0.144121 -0.000107 0
0.144031 -0.000074 0
0.000000 0.000000 0
0.000000 0.000000 0
0.000000 0.000000 0
0.000000 0.000000 0
0.000000 0.000000 0
0.000000 0.000000 0
0.000000 0.000000 0
0.000000 0.000000 0
0.000000 0.000000 0
0.000000 -0.002078 0
0.000000 0.000001 0
-0.005763 0.008226 0
-0.017761 0.014515 0
-0.032484 0.017529 0
-0.047882 0.018425 0
-0.063040 0.018424 0
-0.077677 0.018240 0
-0.091799 0.018172 0
-0.105495 0.018287 0
-0.118840 0.018540 0
-0.131837 0.018815 0
-0.144385 0.018941 0
-0.156246 0.018700 0
-0.167029 0.017860 0
-0.176192 0.016229 0
-0.183111 0.013713 0
-0.187179 0.010358 0
-0.187953 0.006291 0
-0.185090 0.001696 0
-0.178743 -0.003153 0
-0.169199 -0.007918 0
-0.156848 -0.012330 0
-0.142113 -0.016236 0
-0.125437 -0.019598 0
-0.107211 -0.022502 0
-0.087655 -0.024922 0
-0.067128 -0.026740 0
-0.045926 -0.027959 0
-0.024295 -0.028771 0
-0.002650 -0.029253 0
0.018785 -0.029310 0
0.039871 -0.028897 0
0.060371 -0.028063 0
0.080138 -0.026971 0
0.099092 -0.025702 0
0.117177 -0.024306 0
0.134327 -0.022830 0
0.150495 -0.021306 0
0.165654 -0.019761 0
0.179792 -0.018217 0
0.192908 -0.016691 0
0.205013 -0.015202 0
0.216127 -0.013762 0
0.226278 -0.012382 0
0.235497 -0.011070 0
0.243824 -0.009833 0
0.251300 -0.008674 0
0.257971 -0.007595 0
0.263882 -0.006597 0
0.269082 -0.005679 0
0.273618 -0.004840 0
0.277539 -0.004077 0
0.280891 -0.003387 0
0.283720 -0.002766 0
0.286070 -0.002210 0
0.287984 -0.001715 0
0.289502 -0.001278 0
0.290664 -0.000896 0
0.291506 -0.000566 0
0.292063 -0.000286 0
0.292371 -0.000053 0
0.292461 0.000148 0
0.292371 0.000329 0
0.292115 0.000488 0
0.291712 0.000622 0
0.291180 0.000732 0
0.290537 0.000820 0
0.289799 0.000889 0
0.288981 0.000941 0
0.288096 0.000979 0
0.287157 0.001003 0
0.286175 0.001015 0
0.285162 0.001015 0
0.284128 0.001005 0
0.283084 0.000984 0
0.282040 0.000953 0
0.281006 0.000912 0
0.279993 0.000860 0
0.279010 0.000798 0
0.278069 0.000725 0
0.277179 0.000643 0
0.276350 0.000550 0
0.275591 0.000448 0
0.274911 0.000339 0
0.274319 0.000226 0
0.273822 0.000112 0
0.273422 0.000005 0
0.273117 -0.000076 0
0.272895 -0.000098 0
0.272728 -0.000031 0
0.272560 0.000028 0
0.000000 0.000000 0
0.000000 0.000000 0
0.000000 0.000000 0
0.000000 0.000000 0
0.000000 0.000000 0
0.000000 0.000000 0
0.000000 0.000000 0
0.000000 0.000000 0
0.000000 0.000000 0
0.000000 -0.005767 0
0.000000 0.000000 0
-0.008784 0.019221 0
-0.025095 0.030464 0
-0.043596 0.035004 0
-0.061863 0.035808 0
-0.079020 0.035104 0
-0.094869 0.034083 0
-0.109460 0.033222 0
-0.122887 0.032612 0
-0.135195 0.032155 0
-0.146346 0.031645 0
-0.156212 0.030784 0
-0.164514 0.029206 0
-0.170836 0.026520 0
-0.174573 0.022410 0
-0.175018 0.016758 0
-0.171507 0.009735 0
-0.163705 0.001628 0
-0.152355 -0.006908 0
-0.138063 -0.015144 0
-0.121289 -0.022753 0
-0.102476 -0.029544 0
-0.081954 -0.035385 0
-0.060099 -0.040242 0
-0.037174 -0.044339 0
-0.013702 -0.047678 0
0.010104 -0.050126 0
0.034077 -0.051794 0
0.058059 -0.052646 0
0.081700 -0.052722 0
0.104822 -0.052223 0
0.127310 -0.051201 0
0.149135 -0.049703 0
0.170221 -0.047839 0
0.190477 -0.045707 0
0.209840 -0.043380 0
0.228258 -0.040917 0
0.245692 -0.038371 0
0.262120 -0.035781 0
0.277530 -0.033184 0
0.291924 -0.030609 0
0.305312 -0.028083 0
0.317709 -0.025626 0
0.329140 -0.023257 0
0.339633 -0.020988 0
0.349221 -0.018831 0
0.357940 -0.016792 0
0.365827 -0.014877 0
0.372924 -0.013087 0
0.379272 -0.011424 0
0.384913 -0.009885 0
0.389889 -0.008469 0
0.394242 -0.007171 0
0.398013 -0.005988 0
0.401244 -0.004913 0
0.403973 -0.003943 0
0.406239 -0.003071 0
0.408077 -0.002292 0
0.409524 -0.001603 0
0.410610 -0.000998 0
0.411367 -0.000473 0
0.411824 -0.000025 0
0.412021 0.000366 0
0.411996 0.000716 0
0.411768 0.001021 0
0.411360 0.001283 0
0.410789 0.001504 0
0.410074 0.001689 0
0.409230 0.001841 0
0.408274 0.001964 0
0.407220 0.002058 0
0.406082 0.002127 0
0.404875 0.002172 0
0.403612 0.002193 0
0.402307 0.002191 0
0.400974 0.002166 0
0.399625 0.002118 0
0.398276 0.002047 0
0.396940 0.001953 0
0.395632 0.001835 0
0.394367 0.001695 0
0.393158 0.001532 0
0.392021 0.001348 0
0.390969 0.001146 0
0.390016 0.000929 0
0.389174 0.000706 0
0.388452 0.000489 0
0.387854 0.000300 0
0.387386 0.000174 0
0.387051 0.000165 0
0.386825 0.000200 0
0.000000 0.000000 0
0.000000 0.000000 0
0.000000 0.000000 0
0.000000 0.000000 0
0.000000 0.000000 0
0.000000 0.000000 0
0.000000 0.000000 0
0.000000 0.000000 0
0.000000 0.000000 0
0.000000 -0.010742 0
0.000000 0.000000 0
-0.010892 0.033169 0
-0.029363 0.049264 0
-0.048622 0.054235 0
-0.066202 0.053786 0
-0.081506 0.051367 0
-0.094559 0.048617 0
-0.105535 0.046127 0
-0.114576 0.043960 0
-0.121703 0.041936 0
-0.126829 0.039769 0
-0.129829 0.037046 0
-0.130385 0.033261 0
-0.128088 0.027856 0
-0.122338 0.020347 0
-0.112270 0.010584 0
-0.097903 -0.001019 0
-0.080513 -0.012924 0
-0.061067 -0.024009 0
-0.040084 -0.034281 0
-0.018004 -0.043568 0
0.004930 -0.051728 0
0.028522 -0.058677 0
0.052605 -0.064441 0
0.077000 -0.068962 0
0.101306 -0.072263 0
0.125388 -0.074582 0
0.149124 -0.075977 0
0.172369 -0.076457 0
0.195110 -0.076079 0
0.217248 -0.074983 0
0.238681 -0.073273 0
0.259370 -0.071037 0
0.279272 -0.068375 0
0.298340 -0.065385 0
0.316535 -0.062150 0
0.333826 -0.058744 0
0.350193 -0.055231 0
0.365628 -0.051662 0
0.380129 -0.048084 0
0.393705 -0.044536 0
0.406370 -0.041050 0
0.418142 -0.037654 0
0.429047 -0.034369 0
0.439112 -0.031214 0
0.448366 -0.028202 0
0.456843 -0.025343 0
0.464575 -0.022642 0
0.471597 -0.020105 0
0.477944 -0.017731 0
0.483652 -0.015520 0
0.488754 -0.013469 0
0.493285 -0.011574 0
0.497279 -0.009831 0
0.500769 -0.008232 0
0.503785 -0.006773 0
0.506359 -0.005446 0
0.508520 -0.004244 0
0.510294 -0.003162 0
0.511709 -0.002193 0
0.512786 -0.001330 0
0.513549 -0.000569 0
0.514018 0.000094 0
0.514231 0.000678 0
0.514219 0.001194 0
0.514001 0.001648 0
0.513596 0.002043 0
0.513019 0.002385 0
0.512285 0.002678 0
0.511410 0.002926 0
0.510406 0.003131 0
0.509290 0.003296 0
0.508073 0.003422 0
0.506771 0.003510 0
0.505397 0.003560 0
0.503967 0.003572 0
0.502495 0.003547 0
0.500996 0.003482 0
0.499486 0.003379 0
0.497982 0.003236 0
0.496500 0.003054 0
0.495059 0.002833 0
0.493674 0.002574 0
0.492366 0.002281 0
0.491150 0.001957 0
0.490045 0.001613 0
0.489070 0.001263 0
0.488241 0.000927 0
0.487580 0.000642 0
0.487110 0.000467 0
0.486848 0.000418 0
0.000000 0.000000 0
0.000000 0.000000 0
0.000000 0.000000 0
0.000000 0.000000 0
0.000000 0.000000 0
0.000000 0.000000 0
0.000000 0.000000 0
0.000000 0.000000 0
0.000000 0.000000 0
0.000000 -0.016539 0
0.000000 -0.000000 0
-0.012323 0.048433 0
-0.030486 0.068131 0
-0.046986 0.071780 0
-0.060013 0.068629 0
-0.069607 0.063398 0
-0.076140 0.058049 0
-0.079930 0.053176 0
-0.081198 0.048717 0
-0.079917 0.044345 0
-0.075862 0.039709 0
-0.068892 0.034277 0
-0.058546 0.027402 0
-0.043990 0.018410 0
-0.025216 0.006528 0
-0.003452 -0.007740 0
0.020027 -0.022085 0
0.044054 -0.035271 0
0.068531 -0.047400 0
0.093244 -0.058270 0
0.117926 -0.067830 0
0.142465 -0.076133 0
0.166736 -0.083122 0
0.190698 -0.088784 0
0.214203 -0.093103 0
0.237291 -0.096129 0
0.259847 -0.098007 0
0.281773 -0.098838 0
0.302997 -0.098695 0
0.323510 -0.097664 0
0.343283 -0.095857 0
0.362278 -0.093386 0
0.380476 -0.090357 0
0.397859 -0.086872 0
0.414413 -0.083033 0
0.430127 -0.078928 0
0.444993 -0.074639 0
0.459012 -0.070236 0
0.472188 -0.065780 0
0.484534 -0.061324 0
0.496066 -0.056912 0
0.506804 -0.052583 0
0.516775 -0.048367 0
0.526003 -0.044289 0
0.534520 -0.040370 0
0.542354 -0.036625 0
0.549537 -0.033064 0
0.556101 -0.029694 0
0.562076 -0.026520 0
0.567495 -0.023541 0
0.572387 -0.020758 0
0.576782 -0.018165 0
0.580709 -0.015759 0
0.584195 -0.013534 0
0.587265 -0.011482 0
0.589946 -0.009596 0
0.592260 -0.007868 0
0.594230 -0.006290 0
0.595876 -0.004854 0
0.597218 -0.003553 0
0.598271 -0.002377 0
0.599053 -0.001319 0
0.599577 -0.000378 0
0.599856 0.000452 0
0.599920 0.001189 0
0.599786 0.001843 0
0.599468 0.002424 0
0.598980 0.002937 0
0.598334 0.003388 0
0.597541 0.003779 0
0.596613 0.004116 0
0.595563 0.004398 0
0.594401 0.004628 0
0.593142 0.004806 0
0.591796 0.004932 0
0.590378 0.005006 0
0.588902 0.005026 0
0.587382 0.004993 0
0.585833 0.004904 0
0.584272 0.004758 0
0.582715 0.004555 0
0.581181 0.004295 0
0.579687 0.003978 0
0.578253 0.003607 0
0.576901 0.003186 0
0.575653 0.002723 0
0.574532 0.002230 0
0.573566 0.001727 0
0.572790 0.001242 0
0.572244 0.000834 0
0.571966 0.000663 0
0.000000 0.000000 0
0.000000 0.000000 0
0.000000 0.000000 0
0.000000 0.000000 0
0.000000 0.000000 0
0.000000 0.000000 0
0.000000 0.000000 0
0.000000 0.000000 0
0.000000 0.000000 0
0.000000 -0.022945 0
0.000000 -0.000001 0
-0.013612 0.063503 0
-0.028243 0.083865 0
-0.037352 0.083698 0
-0.041140 0.076344 0
-0.040789 0.067431 0
-0.037009 0.058876 0
-0.030049 0.051122 0
-0.020181 0.043884 0
-0.007334 0.036538 0
0.008956 0.028682 0
0.029346 0.019666 0
0.053581 0.008296 0
0.080829 -0.005537 0
0.109817 -0.020253 0
0.138791 -0.034722 0
0.166740 -0.048589 0
0.193925 -0.061490 0
0.220324 -0.073261 0
0.245919 -0.083739 0
0.270755 -0.092852 0
0.294784 -0.100601 0
0.317965 -0.106973 0
0.340298 -0.111972 0
0.361769 -0.115618 0
0.382423 -0.117970 0
0.402258 -0.119126 0
0.421257 -0.119190 0
0.439408 -0.118256 0
0.456722 -0.116428 0
0.473209 -0.113815 0
0.488874 -0.110529 0
0.503726 -0.106681 0
0.517774 -0.102376 0
0.531029 -0.097715 0
0.543501 -0.092793 0
0.555204 -0.087692 0
0.566152 -0.082488 0
0.576366 -0.077247 0
0.585865 -0.072025 0
0.594675 -0.066869 0
0.602822 -0.061822 0
0.610334 -0.056916 0
0.617240 -0.052177 0
0.623571 -0.047628 0
0.629356 -0.043282 0
0.634626 -0.039153 0
0.639412 -0.035245 0
0.643741 -0.031562 0
0.647642 -0.028105 0
0.651141 -0.024870 0
0.654265 -0.021854 0
0.657038 -0.019050 0
0.659483 -0.016450 0
0.661621 -0.014047 0
0.663471 -0.011831 0
0.665052 -0.009793 0
0.666382 -0.007923 0
0.667474 -0.006212 0
0.668344 -0.004650 0
0.669003 -0.003228 0
0.669462 -0.001938 0
0.669732 -0.000772 0
0.669817 0.000271 0
0.669729 0.001202 0
0.669476 0.002037 0
0.669069 0.002786 0
0.668516 0.003457 0
0.667827 0.004055 0
0.667010 0.004584 0
0.666073 0.005047 0
0.665026 0.005445 0
0.663878 0.005780 0
0.662639 0.006052 0
0.661319 0.006260 0
0.659929 0.006403 0
0.658479 0.006480 0
0.656984 0.006488 0
0.655455 0.006426 0
0.653907 0.006291 0
0.652355 0.006083 0
0.650816 0.005798 0
0.649307 0.005438 0
0.647847 0.005003 0
0.646459 0.004495 0
0.645165 0.003920 0
0.643995 0.003286 0
0.642981 0.002606 0
0.642164 0.001901 0
0.641594 0.001228 0
0.641317 0.000914 0
0.000000 0.000000 0
0.000000 0.000000 0
0.000000 0.000000 0
0.000000 0.000000 0
0.000000 0.000000 0
0.000000 0.000000 0
0.000000 0.000000 0
0.000000 0.000000 0
0.000000 0.000000 0
0.000000 -0.030031 0
0.000000 -0.000001 0
-0.014272 0.076523 0
-0.019063 0.091809 0
-0.013354 0.084615 0
-0.001352 0.072002 0
0.014197 0.059204 0
0.032668 0.047246 0
0.054177 0.036285 0
0.079171 0.025940 0
0.107443 0.015145 0
0.138316 0.002965 0
0.171228 -0.010411 0
0.205289 -0.024143 0
0.238977 -0.037888 0
0.271210 -0.051496 0
0.301896 -0.064726 0
0.330914 -0.077282 0
0.358329 -0.088918 0
0.384196 -0.099458 0
0.408591 -0.108765 0
0.431612 -0.116758 0
0.453322 -0.123405 0
0.473778 -0.128699 0
0.493039 -0.132650 0
0.511166 -0.135292 0
0.528229 -0.136681 0
0.544284 -0.136903 0
0.559376 -0.136050 0
0.573544 -0.134224 0
0.586829 -0.131528 0
0.599270 -0.128072 0
0.610905 -0.123966 0
0.621765 -0.119319 0
0.631883 -0.114238 0
0.641287 -0.108823 0
0.650007 -0.103166 0
0.658069 -0.097353 0
0.665501 -0.091461 0
0.672331 -0.085556 0
0.678586 -0.079696 0
0.684296 -0.073932 0
0.689491 -0.068304 0
0.694198 -0.062848 0
0.698449 -0.057589 0
0.702272 -0.052549 0
0.705695 -0.047744 0
0.708746 -0.043182 0
0.711452 -0.038871 0
0.713838 -0.034812 0
0.715928 -0.031005 0
0.717745 -0.027444 0
0.719310 -0.024125 0
0.720643 -0.021040 0
0.721763 -0.018179 0
0.722685 -0.015533 0
0.723426 -0.013091 0
0.723999 -0.010842 0
0.724416 -0.008775 0
0.724689 -0.006879 0
0.724826 -0.005144 0
0.724836 -0.003558 0
0.724727 -0.002112 0
0.724502 -0.000797 0
0.724167 0.000393 0
0.723716 0.001467 0
0.723151 0.002440 0
0.722475 0.003321 0
0.721695 0.004116 0
0.720815 0.004831 0
0.719842 0.005471 0
0.718782 0.006036 0
0.717641 0.006530 0
0.716425 0.006952 0
0.715142 0.007302 0
0.713798 0.007580 0
0.712402 0.007782 0
0.710962 0.007908 0
0.709487 0.007954 0
0.707987 0.007917 0
0.706474 0.007795 0
0.704960 0.007584 0
0.703459 0.007281 0
0.701986 0.006884 0
0.700559 0.006392 0
0.699197 0.005805 0
0.697925 0.005124 0
0.696770 0.004352 0
0.695768 0.003495 0
0.694962 0.002566 0
0.694403 0.001618 0
0.694141 0.001156 0
0.000000 0.000000 0
0.000000 0.000000 0
0.000000 0.000000 0
0.000000 0.000000 0
0.000000 0.000000 0
0.000000 0.000000 0
0.000000 0.000000 0
0.000000 0.000000 0
0.000000 0.000000 0
0.000000 -0.037096 0
0.000000 -0.000001 0
-0.005666 0.082414 0
0.015023 0.082885 0
0.046429 0.065924 0
0.081409 0.048730 0
0.118623 0.033349 0
0.156979 0.018833 0
0.195846 0.004556 0
0.235104 -0.009444 0
0.274483 -0.022670 0
0.313289 -0.035166 0
0.350514 -0.047370 0
0.385776 -0.059516 0
0.418991 -0.071521 0
0.450076 -0.083235 0
0.478984 -0.094489 0
0.505733 -0.105084 0
0.530407 -0.114835 0
0.553116 -0.123586 0
0.573983 -0.131217 0
0.593141 -0.137646 0
0.610715 -0.142830 0
0.626819 -0.146752 0
0.641562 -0.149422 0
0.655050 -0.150871 0
0.667384 -0.151151 0
0.678655 -0.150336 0
0.688944 -0.148512 0
0.698324 -0.145772 0
0.706861 -0.142218 0
0.714618 -0.137954 0
0.721651 -0.133086 0
0.728011 -0.127721 0
0.733746 -0.121961 0
0.738897 -0.115903 0
0.743506 -0.109637 0
0.747608 -0.103249 0
0.751239 -0.096813 0
0.754431 -0.090395 0
0.757217 -0.084053 0
0.759626 -0.077837 0
0.761689 -0.071787 0
0.763433 -0.065937 0
0.764885 -0.060314 0
0.766071 -0.054936 0
0.767016 -0.049820 0
0.767742 -0.044972 0
0.768270 -0.040399 0
0.768622 -0.036101 0
0.768815 -0.032075 0
0.768866 -0.028315 0
0.768791 -0.024815 0
0.768604 -0.021565 0
0.768318 -0.018555 0
0.767944 -0.015773 0
0.767493 -0.013207 0
0.766973 -0.010846 0
0.766391 -0.008676 0
0.765754 -0.006685 0
0.765067 -0.004861 0
0.764334 -0.003192 0
0.763556 -0.001666 0
0.762733 -0.000276 0
0.761859 0.000994 0
0.760927 0.002156 0
0.759936 0.003215 0
0.758886 0.004179 0
0.757782 0.005054 0
0.756626 0.005844 0
0.755421 0.006554 0
0.754170 0.007185 0
0.752879 0.007739 0
0.751549 0.008216 0
0.750185 0.008616 0
0.748791 0.008937 0
0.747373 0.009177 0
0.745935 0.009332 0
0.744483 0.009400 0
0.743025 0.009376 0
0.741568 0.009255 0
0.740121 0.009035 0
0.738695 0.008710 0
0.737301 0.008276 0
0.735953 0.007729 0
0.734669 0.007066 0
0.733470 0.006284 0
0.732381 0.005380 0
0.731436 0.004352 0
0.730676 0.003204 0
0.730153 0.001986 0
0.729916 0.001378 0
-0.500000 0.000000 0
-0.471662 0.000000 0
-0.430216 0.000000 0
-0.388911 0.000000 0
-0.352140 0.000000 0
-0.321356 0.000000 0
-0.296976 0.000000 0
-0.279224 0.000000 0
-0.269047 0.000000 0
-0.270457 -0.035575 0
0.000000 -0.000001 0
0.064877 0.061348 0
0.135337 0.039652 0
0.199173 0.018166 0
0.256534 -0.000255 0
0.309221 -0.016429 0
0.358138 -0.030040 0
0.403586 -0.041903 0
0.445465 -0.052761 0
0.484054 -0.063102 0
0.519821 -0.073129 0
0.553050 -0.082962 0
0.583780 -0.092683 0
0.612035 -0.102250 0
0.637866 -0.111553 0
0.661334 -0.120445 0
0.682523 -0.128768 0
0.701547 -0.136364 0
0.718537 -0.143096 0
0.733635 -0.148853 0
0.746989 -0.153553 0
0.758741 -0.157146 0
0.769029 -0.159610 0
0.777983 -0.160945 0
0.785728 -0.161176 0
0.792380 -0.160349 0
0.798045 -0.158525 0
0.802822 -0.155781 0
0.806801 -0.152203 0
0.810061 -0.147885 0
0.812678 -0.142925 0
0.814719 -0.137422 0
0.816246 -0.131477 0
0.817314 -0.125187 0
0.817974 -0.118646 0
0.818273 -0.111940 0
0.818252 -0.105149 0
0.817950 -0.098347 0
0.817401 -0.091597 0
0.816637 -0.084954 0
0.815689 -0.078467 0
0.814584 -0.072174 0
0.813345 -0.066107 0
0.811996 -0.060290 0
0.810558 -0.054743 0
0.809048 -0.049477 0
0.807483 -0.044500 0