# vtk DataFile Version 2.0
generated by CFD-lab course output (written by Tobias Neckel) 
ASCII

DATASET STRUCTURED_GRID
DIMENSIONS  101 21 1 
POINTS 2121 float

0.000000 0.000000 0
0.100000 0.000000 0
0.200000 0.000000 0
0.300000 0.000000 0
0.400000 0.000000 0
0.500000 0.000000 0
0.600000 0.000000 0
0.700000 0.000000 0
0.800000 0.000000 0
0.900000 0.000000 0
1.000000 0.000000 0
1.100000 0.000000 0
1.200000 0.000000 0
1.300000 0.000000 0
1.400000 0.000000 0
1.500000 0.000000 0
1.600000 0.000000 0
1.700000 0.000000 0
1.800000 0.000000 0
1.900000 0.000000 0
2.000000 0.000000 0
2.100000 0.000000 0
2.200000 0.000000 0
2.300000 0.000000 0
2.400000 0.000000 0
2.500000 0.000000 0
2.600000 0.000000 0
2.700000 0.000000 0
2.800000 0.000000 0
2.900000 0.000000 0
3.000000 0.000000 0
3.100000 0.000000 0
3.200000 0.000000 0
3.300000 0.000000 0
3.400000 0.000000 0
3.500000 0.000000 0
3.600000 0.000000 0
3.700000 0.000000 0
3.800000 0.000000 0
3.900000 0.000000 0
4.000000 0.000000 0
4.100000 0.000000 0
4.200000 0.000000 0
4.300000 0.000000 0
4.400000 0.000000 0
4.500000 0.000000 0
4.600000 0.000000 0
4.700000 0.000000 0
4.800000 0.000000 0
4.900000 0.000000 0
5.000000 0.000000 0
5.100000 0.000000 0
5.200000 0.000000 0
5.300000 0.000000 0
5.400000 0.000000 0
5.500000 0.000000 0
5.600000 0.000000 0
5.700000 0.000000 0
5.800000 0.000000 0
5.900000 0.000000 0
6.000000 0.000000 0
6.100000 0.000000 0
6.200000 0.000000 0
6.300000 0.000000 0
6.400000 0.000000 0
6.500000 0.000000 0
6.600000 0.000000 0
6.700000 0.000000 0
6.800000 0.000000 0
6.900000 0.000000 0
7.000000 0.000000 0
7.100000 0.000000 0
7.200000 0.000000 0
7.300000 0.000000 0
7.400000 0.000000 0
7.500000 0.000000 0
7.600000 0.000000 0
7.700000 0.000000 0
7.800000 0.000000 0
7.900000 0.000000 0
8.000000 0.000000 0
8.100000 0.000000 0
8.200000 0.000000 0
8.300000 0.000000 0
8.400000 0.000000 0
8.500000 0.000000 0
8.600000 0.000000 0
8.700000 0.000000 0
8.800000 0.000000 0
8.900000 0.000000 0
9.000000 0.000000 0
9.100000 0.000000 0
9.200000 0.000000 0
9.300000 0.000000 0
9.400000 0.000000 0
9.500000 0.000000 0
9.600000 0.000000 0
9.700000 0.000000 0
9.800000 0.000000 0
9.900000 0.000000 0
10.000000 0.000000 0
0.000000 0.100000 0
0.100000 0.100000 0
0.200000 0.100000 0
0.300000 0.100000 0
0.400000 0.100000 0
0.500000 0.100000 0
0.600000 0.100000 0
0.700000 0.100000 0
0.800000 0.100000 0
0.900000 0.100000 0
1.000000 0.100000 0
1.100000 0.100000 0
1.200000 0.100000 0
1.300000 0.100000 0
1.400000 0.100000 0
1.500000 0.100000 0
1.600000 0.100000 0
1.700000 0.100000 0
1.800000 0.100000 0
1.900000 0.100000 0
2.000000 0.100000 0
2.100000 0.100000 0
2.200000 0.100000 0
2.300000 0.100000 0
2.400000 0.100000 0
2.500000 0.100000 0
2.600000 0.100000 0
2.700000 0.100000 0
2.800000 0.100000 0
2.900000 0.100000 0
3.000000 0.100000 0
3.100000 0.100000 0
3.200000 0.100000 0
3.300000 0.100000 0
3.400000 0.100000 0
3.500000 0.100000 0
3.600000 0.100000 0
3.700000 0.100000 0
3.800000 0.100000 0
3.900000 0.100000 0
4.000000 0.100000 0
4.100000 0.100000 0
4.200000 0.100000 0
4.300000 0.100000 0
4.400000 0.100000 0
4.500000 0.100000 0
4.600000 0.100000 0
4.700000 0.100000 0
4.800000 0.100000 0
4.900000 0.100000 0
5.000000 0.100000 0
5.100000 0.100000 0
5.200000 0.100000 0
5.300000 0.100000 0
5.400000 0.100000 0
5.500000 0.100000 0
5.600000 0.100000 0
5.700000 0.100000 0
5.800000 0.100000 0
5.900000 0.100000 0
6.000000 0.100000 0
6.100000 0.100000 0
6.200000 0.100000 0
6.300000 0.100000 0
6.400000 0.100000 0
6.500000 0.100000 0
6.600000 0.100000 0
6.700000 0.100000 0
6.800000 0.100000 0
6.900000 0.100000 0
7.000000 0.100000 0
7.100000 0.100000 0
7.200000 0.100000 0
7.300000 0.100000 0
7.400000 0.100000 0
7.500000 0.100000 0
7.600000 0.100000 0
7.700000 0.100000 0
7.800000 0.100000 0
7.900000 0.100000 0
8.000000 0.100000 0
8.100000 0.100000 0
8.200000 0.100000 0
8.300000 0.100000 0
8.400000 0.100000 0
8.500000 0.100000 0
8.600000 0.100000 0
8.700000 0.100000 0
8.800000 0.100000 0
8.900000 0.100000 0
9.000000 0.100000 0
9.100000 0.100000 0
9.200000 0.100000 0
9.300000 0.100000 0
9.400000 0.100000 0
9.500000 0.100000 0
9.600000 0.100000 0
9.700000 0.100000 0
9.800000 0.100000 0
9.900000 0.100000 0
10.000000 0.100000 0
0.000000 0.200000 0
0.100000 0.200000 0
0.200000 0.200000 0
0.300000 0.200000 0
0.400000 0.200000 0
0.500000 0.200000 0
0.600000 0.200000 0
0.700000 0.200000 0
0.800000 0.200000 0
0.900000 0.200000 0
1.000000 0.200000 0
1.100000 0.200000 0
1.200000 0.200000 0
1.300000 0.200000 0
1.400000 0.200000 0
1.500000 0.200000 0
1.600000 0.200000 0
1.700000 0.200000 0
1.800000 0.200000 0
1.900000 0.200000 0
2.000000 0.200000 0
2.100000 0.200000 0
2.200000 0.200000 0
2.300000 0.200000 0
2.400000 0.200000 0
2.500000 0.200000 0
2.600000 0.200000 0
2.700000 0.200000 0
2.800000 0.200000 0
2.900000 0.200000 0
3.000000 0.200000 0
3.100000 0.200000 0
3.200000 0.200000 0
3.300000 0.200000 0
3.400000 0.200000 0
3.500000 0.200000 0
3.600000 0.200000 0
3.700000 0.200000 0
3.800000 0.200000 0
3.900000 0.200000 0
4.000000 0.200000 0
4.100000 0.200000 0
4.200000 0.200000 0
4.300000 0.200000 0
4.400000 0.200000 0
4.500000 0.200000 0
4.600000 0.200000 0
4.700000 0.200000 0
4.800000 0.200000 0
4.900000 0.200000 0
5.000000 0.200000 0
5.100000 0.200000 0
5.200000 0.200000 0
5.300000 0.200000 0
5.400000 0.200000 0
5.500000 0.200000 0
5.600000 0.200000 0
5.700000 0.200000 0
5.800000 0.200000 0
5.900000 0.200000 0
6.000000 0.200000 0
6.100000 0.200000 0
6.200000 0.200000 0
6.300000 0.200000 0
6.400000 0.200000 0
6.500000 0.200000 0
6.600000 0.200000 0
6.700000 0.200000 0
6.800000 0.200000 0
6.900000 0.200000 0
7.000000 0.200000 0
7.100000 0.200000 0
7.200000 0.200000 0
7.300000 0.200000 0
7.400000 0.200000 0
7.500000 0.200000 0
7.600000 0.200000 0
7.700000 0.200000 0
7.800000 0.200000 0
7.900000 0.200000 0
8.000000 0.200000 0
8.100000 0.200000 0
8.200000 0.200000 0
8.300000 0.200000 0
8.400000 0.200000 0
8.500000 0.200000 0
8.600000 0.200000 0
8.700000 0.200000 0
8.800000 0.200000 0
8.900000 0.200000 0
9.000000 0.200000 0
9.100000 0.200000 0
9.200000 0.200000 0
9.300000 0.200000 0
9.400000 0.200000 0
9.500000 0.200000 0
9.600000 0.200000 0
9.700000 0.200000 0
9.800000 0.200000 0
9.900000 0.200000 0
10.000000 0.200000 0
0.000000 0.300000 0
0.100000 0.300000 0
0.200000 0.300000 0
0.300000 0.300000 0
0.400000 0.300000 0
0.500000 0.300000 0
0.600000 0.300000 0
0.700000 0.300000 0
0.800000 0.300000 0
0.900000 0.300000 0
1.000000 0.300000 0
1.100000 0.300000 0
1.200000 0.300000 0
1.300000 0.300000 0
1.400000 0.300000 0
1.500000 0.300000 0
1.600000 0.300000 0
1.700000 0.300000 0
1.800000 0.300000 0
1.900000 0.300000 0
2.000000 0.300000 0
2.100000 0.300000 0
2.200000 0.300000 0
2.300000 0.300000 0
2.400000 0.300000 0
2.500000 0.300000 0
2.600000 0.300000 0
2.700000 0.300000 0
2.800000 0.300000 0
2.900000 0.300000 0
3.000000 0.300000 0
3.100000 0.300000 0
3.200000 0.300000 0
3.300000 0.300000 0
3.400000 0.300000 0
3.500000 0.300000 0
3.600000 0.300000 0
3.700000 0.300000 0
3.800000 0.300000 0
3.900000 0.300000 0
4.000000 0.300000 0
4.100000 0.300000 0
4.200000 0.300000 0
4.300000 0.300000 0
4.400000 0.300000 0
4.500000 0.300000 0
4.600000 0.300000 0
4.700000 0.300000 0
4.800000 0.300000 0
4.900000 0.300000 0
5.000000 0.300000 0
5.100000 0.300000 0
5.200000 0.300000 0
5.300000 0.300000 0
5.400000 0.300000 0
5.500000 0.300000 0
5.600000 0.300000 0
5.700000 0.300000 0
5.800000 0.300000 0
5.900000 0.300000 0
6.000000 0.300000 0
6.100000 0.300000 0
6.200000 0.300000 0
6.300000 0.300000 0
6.400000 0.300000 0
6.500000 0.300000 0
6.600000 0.300000 0
6.700000 0.300000 0
6.800000 0.300000 0
6.900000 0.300000 0
7.000000 0.300000 0
7.100000 0.300000 0
7.200000 0.300000 0
7.300000 0.300000 0
7.400000 0.300000 0
7.500000 0.300000 0
7.600000 0.300000 0
7.700000 0.300000 0
7.800000 0.300000 0
7.900000 0.300000 0
8.000000 0.300000 0
8.100000 0.300000 0
8.200000 0.300000 0
8.300000 0.300000 0
8.400000 0.300000 0
8.500000 0.300000 0
8.600000 0.300000 0
8.700000 0.300000 0
8.800000 0.300000 0
8.900000 0.300000 0
9.000000 0.300000 0
9.100000 0.300000 0
9.200000 0.300000 0
9.300000 0.300000 0
9.400000 0.300000 0
9.500000 0.300000 0
9.600000 0.300000 0
9.700000 0.300000 0
9.800000 0.300000 0
9.900000 0.300000 0
10.000000 0.300000 0
0.000000 0.400000 0
0.100000 0.400000 0
0.200000 0.400000 0
0.300000 0.400000 0
0.400000 0.400000 0
0.500000 0.400000 0
0.600000 0.400000 0
0.700000 0.400000 0
0.800000 0.400000 0
0.900000 0.400000 0
1.000000 0.400000 0
1.100000 0.400000 0
1.200000 0.400000 0
1.300000 0.400000 0
1.400000 0.400000 0
1.500000 0.400000 0
1.600000 0.400000 0
1.700000 0.400000 0
1.800000 0.400000 0
1.900000 0.400000 0
2.000000 0.400000 0
2.100000 0.400000 0
2.200000 0.400000 0
2.300000 0.400000 0
2.400000 0.400000 0
2.500000 0.400000 0
2.600000 0.400000 0
2.700000 0.400000 0
2.800000 0.400000 0
2.900000 0.400000 0
3.000000 0.400000 0
3.100000 0.400000 0
3.200000 0.400000 0
3.300000 0.400000 0
3.400000 0.400000 0
3.500000 0.400000 0
3.600000 0.400000 0
3.700000 0.400000 0
3.800000 0.400000 0
3.900000 0.400000 0
4.000000 0.400000 0
4.100000 0.400000 0
4.200000 0.400000 0
4.300000 0.400000 0
4.400000 0.400000 0
4.500000 0.400000 0
4.600000 0.400000 0
4.700000 0.400000 0
4.800000 0.400000 0
4.900000 0.400000 0
5.000000 0.400000 0
5.100000 0.400000 0
5.200000 0.400000 0
5.300000 0.400000 0
5.400000 0.400000 0
5.500000 0.400000 0
5.600000 0.400000 0
5.700000 0.400000 0
5.800000 0.400000 0
5.900000 0.400000 0
6.000000 0.400000 0
6.100000 0.400000 0
6.200000 0.400000 0
6.300000 0.400000 0
6.400000 0.400000 0
6.500000 0.400000 0
6.600000 0.400000 0
6.700000 0.400000 0
6.800000 0.400000 0
6.900000 0.400000 0
7.000000 0.400000 0
7.100000 0.400000 0
7.200000 0.400000 0
7.300000 0.400000 0
7.400000 0.400000 0
7.500000 0.400000 0
7.600000 0.400000 0
7.700000 0.400000 0
7.800000 0.400000 0
7.900000 0.400000 0
8.000000 0.400000 0
8.100000 0.400000 0
8.200000 0.400000 0
8.300000 0.400000 0
8.400000 0.400000 0
8.500000 0.400000 0
8.600000 0.400000 0
[...]
POINT_DATA 2121 

VECTORS velocity float
0.000000 0.000000 0
0.000000 0.000000 0
0.000000 0.000000 0
0.000000 0.000000 0
0.000000 0.000000 0
0.000000 0.000000 0
0.000000 0.000000 0
0.000000 0.000000 0
0.000000 0.000000 0
0.000000 0.000000 0
0.000000 0.000000 0
0.000000 0.000000 0
-0.000003 0.000000 0
-0.000004 0.000000 0
-0.000001 0.000000 0
0.000002 0.000000 0
0.000003 0.000000 0
0.000002 0.000000 0
-0.000001 0.000000 0
-0.000002 0.000000 0
-0.000002 0.000000 0
-0.000001 0.000000 0
0.000001 0.000000 0
0.000002 0.000000 0
0.000002 0.000000 0
0.000000 0.000000 0
-0.000001 0.000000 0
-0.000002 0.000000 0
-0.000001 0.000000 0
0.000000 0.000000 0
0.000001 0.000000 0
0.000001 0.000000 0
0.000000 0.000000 0
-0.000000 0.000000 0
-0.000001 0.000000 0
-0.000000 0.000000 0
0.000000 0.000000 0
0.000000 0.000000 0
0.000000 0.000000 0
0.000000 0.000000 0
-0.000000 0.000000 0
-0.000000 0.000000 0
-0.000000 0.000000 0
-0.000000 0.000000 0
-0.000000 0.000000 0
-0.000000 0.000000 0
-0.000000 0.000000 0
-0.000000 0.000000 0
-0.000000 0.000000 0
-0.000000 0.000000 0
-0.000000 0.000000 0
-0.000000 0.000000 0
-0.000000 0.000000 0
-0.000000 0.000000 0
-0.000000 0.000000 0
-0.000000 0.000000 0
-0.000000 0.000000 0
-0.000000 0.000000 0
-0.000000 0.000000 0
-0.000000 0.000000 0
-0.000000 0.000000 0
-0.000000 0.000000 0
-0.000000 0.000000 0
-0.000000 0.000000 0
-0.000000 0.000000 0
-0.000000 0.000000 0
-0.000000 0.000000 0
-0.000000 0.000000 0
-0.000000 0.000000 0
-0.000000 0.000000 0
-0.000000 0.000000 0
-0.000000 0.000000 0
-0.000000 0.000000 0
-0.000000 0.000000 0
-0.000000 0.000000 0
-0.000000 0.000000 0
-0.000000 0.000000 0
-0.000000 0.000000 0
-0.000000 0.000000 0
-0.000000 0.000000 0
-0.000000 0.000000 0
-0.000000 0.000000 0
-0.000000 0.000000 0
-0.000000 0.000000 0
-0.000000 0.000000 0
-0.000000 0.000000 0
-0.000000 0.000000 0
-0.000000 0.000000 0
-0.000000 0.000000 0
-0.000000 0.000000 0
-0.000000 0.000000 0
-0.000000 0.000000 0
-0.000000 0.000000 0
-0.000000 0.000000 0
-0.000000 0.000000 0
-0.000000 0.000000 0
-0.000000 0.000000 0
-0.000000 0.000000 0
-0.000000 0.000000 0
-0.000000 0.000000 0
-0.000000 0.000000 0
0.000000 0.000000 0
0.000000 0.000000 0
0.000000 0.000000 0
0.000000 0.000000 0
0.000000 0.000000 0
0.000000 0.000000 0
0.000000 0.000000 0
0.000000 0.000000 0
0.000000 0.000000 0
0.000000 -0.000188 0
0.000000 0.000002 0
-0.002139 0.001758 0
-0.008375 0.003960 0
-0.016816 0.005082 0
-0.026024 0.005432 0
-0.035299 0.005468 0
-0.044430 0.005453 0
-0.053425 0.005489 0
-0.062360 0.005599 0
-0.071305 0.005770 0
-0.080288 0.005967 0
-0.089274 0.006141 0
-0.098140 0.006224 0
-0.106665 0.006143 0
-0.114533 0.005832 0
-0.121374 0.005255 0
-0.126816 0.004415 0
-0.130546 0.003342 0
-0.132327 0.002087 0
-0.132014 0.000731 0
-0.129579 -0.000655 0
-0.125134 -0.002029 0
-0.118871 -0.003330 0
-0.111032 -0.004493 0
-0.101860 -0.005509 0
-0.091562 -0.006381 0
-0.080334 -0.007085 0
-0.068423 -0.007590 0
-0.056082 -0.007907 0
-0.043531 -0.008121 0
-0.030830 -0.008229 0
-0.018179 -0.008162 0
-0.005729 -0.007997 0
0.006322 -0.007770 0
0.017871 -0.007441 0
0.028854 -0.007024 0
0.039218 -0.006562 0
0.048935 -0.006090 0
0.057991 -0.005616 0
0.066380 -0.005147 0
0.074110 -0.004688 0
0.081191 -0.004244 0
0.087644 -0.003819 0
0.093492 -0.003416 0
0.098765 -0.003038 0
0.103494 -0.002685 0
0.107713 -0.002360 0
0.111457 -0.002062 0
0.114762 -0.001791 0
0.117664 -0.001545 0
0.120198 -0.001325 0
0.122399 -0.001129 0
0.124299 -0.000955 0
0.125930 -0.000802 0
0.127321 -0.000668 0
0.128501 -0.000552 0
0.129494 -0.000452 0
0.130325 -0.000366 0
0.131015 -0.000294 0
0.131584 -0.000233 0
0.132050 -0.000182 0
0.132428 -0.000141 0
0.132734 -0.000107 0
0.132979 -0.000081 0
0.133176 -0.000060 0
0.133332 -0.000045 0
0.133458 -0.000034 0
0.133561 -0.000026 0
0.133647 -0.000022 0
0.133721 -0.000020 0
0.133787 -0.000021 0
0.133850 -0.000023 0
0.133913 -0.000026 0
0.133978 -0.000031 0
0.134046 -0.000036 0
0.134120 -0.000041 0
0.134201 -0.000047 0
0.134288 -0.000052 0
0.134382 -0.000057 0
0.134482 -0.000061 0
0.134588 -0.000065 0
0.134699 -0.000068 0
0.134812 -0.000069 0
0.134926 -0.000068 0
0.135037 -0.000064 0
0.135141 -0.000058 0
0.135234 -0.000048 0
0.135309 -0.000035 0
0.135361 -0.000020 0
0.135386 -0.000006 0
0.135387 -0.000000 0
0.000000 0.000000 0
0.000000 0.000000 0
0.000000 0.000000 0
0.000000 0.000000 0
0.000000 0.000000 0
0.000000 0.000000 0
0.000000 0.000000 0
0.000000 0.000000 0
0.000000 0.000000 0
0.000000 -0.002138 0
0.000000 0.000001 0
-0.005618 0.008371 0
-0.017554 0.014673 0
-0.032201 0.017652 0
-0.047496 0.018491 0
-0.062510 0.018413 0
-0.076947 0.018127 0
-0.090795 0.017926 0
-0.104127 0.017875 0
-0.117000 0.017926 0
-0.129408 0.017971 0
-0.141252 0.017855 0
-0.152311 0.017394 0
-0.162239 0.016395 0
-0.170567 0.014708 0
-0.176767 0.012279 0
-0.180346 0.009169 0
-0.180956 0.005511 0
-0.178355 0.001470 0
-0.172716 -0.002745 0
-0.164267 -0.006879 0
-0.153350 -0.010709 0
-0.140330 -0.014104 0
-0.125586 -0.017012 0
-0.109466 -0.019470 0
-0.092242 -0.021525 0
-0.074153 -0.023138 0
-0.055477 -0.024252 0
-0.036455 -0.024892 0
-0.017275 -0.025252 0
0.001697 -0.025352 0
0.020329 -0.025100 0
0.038519 -0.024501 0
0.056075 -0.023601 0
0.072904 -0.022532 0
0.088950 -0.021347 0
0.104175 -0.020082 0
0.118538 -0.018773 0
0.132015 -0.017445 0
0.144595 -0.016119 0
0.156280 -0.014811 0
0.167080 -0.013534 0
0.177017 -0.012301 0
0.186116 -0.011121 0
0.194409 -0.010002 0
0.201933 -0.008948 0
0.208727 -0.007963 0
0.214835 -0.007049 0
0.220299 -0.006207 0
0.225165 -0.005436 0
0.229477 -0.004735 0
0.233281 -0.004101 0
0.236620 -0.003531 0
0.239536 -0.003022 0
0.242069 -0.002571 0
0.244260 -0.002173 0
0.246143 -0.001824 0
0.247755 -0.001521 0
0.249126 -0.001259 0
0.250286 -0.001035 0
0.251264 -0.000844 0
0.252083 -0.000684 0
0.252766 -0.000551 0
0.253335 -0.000442 0
0.253806 -0.000353 0
0.254197 -0.000283 0
0.254522 -0.000229 0
0.254794 -0.000188 0
0.255024 -0.000159 0
0.255223 -0.000140 0
0.255397 -0.000130 0
0.255554 -0.000126 0
0.255701 -0.000127 0
0.255843 -0.000133 0
0.255983 -0.000143 0
0.256125 -0.000154 0
0.256271 -0.000167 0
0.256423 -0.000181 0
0.256582 -0.000194 0
0.256748 -0.000207 0
0.256922 -0.000217 0
0.257100 -0.000224 0
0.257283 -0.000227 0
0.257466 -0.000225 0
0.257646 -0.000215 0
0.257816 -0.000197 0
0.257971 -0.000168 0
0.258101 -0.000128 0
0.258196 -0.000077 0
0.258246 -0.000025 0
0.258247 -0.000001 0
0.000000 0.000000 0
0.000000 0.000000 0
0.000000 0.000000 0
0.000000 0.000000 0
0.000000 0.000000 0
0.000000 0.000000 0
0.000000 0.000000 0
0.000000 0.000000 0
0.000000 0.000000 0
0.000000 -0.005803 0
0.000000 -0.000001 0
-0.008604 0.019305 0
-0.024783 0.030546 0
-0.043142 0.035034 0
-0.061254 0.035748 0
-0.078233 0.034919 0
-0.093869 0.033733 0
-0.108201 0.032664 0
-0.121317 0.031803 0
-0.133261 0.031053 0
-0.143998 0.030223 0
-0.153410 0.029048 0
-0.161247 0.027213 0
-0.167140 0.024397 0
-0.170570 0.020357 0
-0.170941 0.015032 0
-0.167724 0.008603 0
-0.160670 0.001353 0
-0.150443 -0.006151 0
-0.137614 -0.013356 0
-0.122540 -0.020021 0
-0.105649 -0.025967 0
-0.087238 -0.031095 0
-0.067640 -0.035357 0
-0.047117 -0.038852 0
-0.025986 -0.041694 0
-0.004585 -0.043850 0
0.016914 -0.045288 0
0.038379 -0.046110 0
0.059671 -0.046273 0
0.080476 -0.045833 0
0.100701 -0.044983 0
0.120254 -0.043743 0
0.139121 -0.042156 0
0.157236 -0.040315 0
0.174536 -0.038294 0
0.190980 -0.036150 0
0.206535 -0.033930 0
0.221183 -0.031673 0
0.234916 -0.029412 0
0.247736 -0.027174 0
0.259655 -0.024981 0
0.270692 -0.022854 0
0.280870 -0.020808 0
0.290220 -0.018854 0
0.298775 -0.017004 0
0.306572 -0.015262 0
0.313649 -0.013634 0
0.320048 -0.012121 0
0.325809 -0.010724 0
0.330975 -0.009442 0
0.335588 -0.008271 0
0.339690 -0.007209 0
0.343323 -0.006251 0
0.346526 -0.005392 0
0.349337 -0.004626 0
0.351795 -0.003947 0
0.353933 -0.003349 0
0.355785 -0.002825 0
0.357383 -0.002371 0
0.358755 -0.001979 0
0.359929 -0.001643 0
0.360930 -0.001359 0
0.361781 -0.001120 0
0.362502 -0.000923 0
0.363113 -0.000761 0
0.363631 -0.000631 0
0.364071 -0.000529 0
0.364447 -0.000450 0
0.364770 -0.000393 0
0.365053 -0.000353 0
0.365303 -0.000328 0
0.365529 -0.000315 0
0.365739 -0.000312 0
0.365937 -0.000318 0
0.366129 -0.000329 0
0.366318 -0.000345 0
0.366508 -0.000363 0
0.366701 -0.000382 0
0.366898 -0.000401 0
0.367100 -0.000417 0
0.367306 -0.000429 0
0.367516 -0.000434 0
0.367727 -0.000430 0
0.367935 -0.000415 0
0.368135 -0.000383 0
0.368320 -0.000333 0
0.368480 -0.000260 0
0.368602 -0.000165 0
0.368670 -0.000057 0
0.368671 -0.000002 0
0.000000 0.000000 0
0.000000 0.000000 0
0.000000 0.000000 0
0.000000 0.000000 0
0.000000 0.000000 0
0.000000 0.000000 0
0.000000 0.000000 0
0.000000 0.000000 0
0.000000 0.000000 0
0.000000 -0.010738 0
0.000000 -0.000003 0
-0.010690 0.033148 0
-0.028994 0.049219 0
-0.048086 0.054132 0
-0.065508 0.053585 0
-0.080661 0.051024 0
-0.093566 0.048088 0
-0.104397 0.045371 0
-0.113303 0.042936 0
-0.120318 0.040610 0
-0.125375 0.038124 0
-0.128359 0.035106 0
-0.128988 0.031123 0
-0.126896 0.025715 0
-0.121577 0.018506 0
-0.112284 0.009432 0
-0.099174 -0.001101 0
-0.083315 -0.011767 0
-0.065577 -0.021583 0
-0.046348 -0.030648 0
-0.026109 -0.038846 0
-0.005101 -0.046013 0
0.016484 -0.052113 0
0.038482 -0.057132 0
0.060735 -0.061123 0
0.083005 -0.064056 0
0.105046 -0.066039 0
0.126741 -0.067217 0
0.147994 -0.067649 0
0.168678 -0.067349 0
0.188806 -0.066381 0
0.208279 -0.064878 0
0.227020 -0.062921 0
0.245006 -0.060583 0
0.262207 -0.057947 0
0.278591 -0.055090 0
0.294134 -0.052081 0
0.308822 -0.048976 0
0.322648 -0.045826 0
0.335616 -0.042672 0
0.347733 -0.039550 0
0.359017 -0.036490 0
0.369487 -0.033516 0
0.379171 -0.030650 0
0.388095 -0.027907 0
0.396293 -0.025299 0
0.403798 -0.022837 0
0.410644 -0.020524 0
0.416869 -0.018366 0
0.422508 -0.016363 0
0.427599 -0.014514 0
0.432179 -0.012817 0
0.436283 -0.011266 0
0.439948 -0.009858 0
0.443209 -0.008585 0
0.446097 -0.007442 0
0.448647 -0.006420 0
0.450889 -0.005511 0
0.452852 -0.004709 0
0.454564 -0.004005 0
0.456052 -0.003391 0
0.457339 -0.002859 0
0.458450 -0.002402 0
0.459404 -0.002013 0
0.460222 -0.001685 0
0.460921 -0.001412 0
0.461518 -0.001186 0
0.462028 -0.001004 0
0.462464 -0.000859 0
0.462839 -0.000746 0
0.463163 -0.000662 0
0.463446 -0.000602 0
0.463696 -0.000563 0
0.463922 -0.000541 0
0.464129 -0.000533 0
0.464323 -0.000536 0
0.464508 -0.000547 0
0.464689 -0.000564 0
0.464869 -0.000584 0
0.465049 -0.000606 0
0.465232 -0.000625 0
0.465418 -0.000640 0
0.465608 -0.000648 0
0.465799 -0.000643 0
0.465990 -0.000623 0
0.466177 -0.000582 0
0.466354 -0.000513 0
0.466511 -0.000410 0
0.466636 -0.000267 0
0.466710 -0.000095 0
0.466711 -0.000004 0
0.000000 0.000000 0
0.000000 0.000000 0
0.000000 0.000000 0
0.000000 0.000000 0
0.000000 0.000000 0
0.000000 0.000000 0
0.000000 0.000000 0
0.000000 0.000000 0
0.000000 0.000000 0
0.000000 -0.016489 0
0.000000 -0.000005 0
-0.012120 0.048296 0
-0.030124 0.067952 0
-0.046477 0.071553 0
-0.059386 0.068320 0
-0.068896 0.062969 0
-0.075386 0.057463 0
-0.079182 0.052400 0
-0.080522 0.047727 0
-0.079406 0.043128 0
-0.075645 0.038267 0
-0.069112 0.032662 0
-0.059407 0.025748 0
-0.045787 0.016983 0
-0.028272 0.005743 0
-0.008056 -0.007371 0
0.013706 -0.020364 0
0.036006 -0.032242 0
0.058745 -0.043116 0
0.081784 -0.052825 0
0.104795 -0.061269 0
0.127680 -0.068561 0
0.150307 -0.074678 0
0.172625 -0.079607 0
0.194530 -0.083375 0
0.215956 -0.086005 0
0.236876 -0.087585 0
0.257199 -0.088236 0
0.276851 -0.088047 0
0.295774 -0.087085 0
0.313975 -0.085434 0
0.331424 -0.083197 0
0.348094 -0.080471 0
0.363974 -0.077343 0
0.379056 -0.073899 0
0.393335 -0.070221 0
0.406810 -0.066381 0
0.419484 -0.062445 0
0.431364 -0.058467 0
0.442464 -0.054497 0
0.452802 -0.050575 0
0.462400 -0.046736 0
0.471284 -0.043008 0
0.479481 -0.039416 0
0.487021 -0.035977 0
0.493936 -0.032706 0
0.500258 -0.029613 0
0.506020 -0.026705 0
0.511255 -0.023985 0
0.515997 -0.021454 0
0.520277 -0.019112 0
0.524128 -0.016955 0
0.527581 -0.014979 0
0.530666 -0.013176 0
0.533411 -0.011541 0
0.535846 -0.010065 0
0.537997 -0.008738 0
0.539889 -0.007554 0
0.541546 -0.006501 0
0.542992 -0.005571 0
0.544246 -0.004754 0
0.545330 -0.004041 0
0.546262 -0.003423 0
0.547060 -0.002892 0
0.547738 -0.002440 0
0.548313 -0.002057 0
0.548798 -0.001738 0
0.549205 -0.001475 0
0.549545 -0.001261 0
0.549830 -0.001091 0
0.550067 -0.000960 0
0.550265 -0.000861 0
0.550433 -0.000791 0
0.550576 -0.000745 0
0.550701 -0.000718 0
0.550812 -0.000708 0
0.550915 -0.000711 0
0.551012 -0.000724 0
0.551107 -0.000742 0
0.551203 -0.000764 0
0.551302 -0.000786 0
0.551405 -0.000804 0
0.551513 -0.000815 0
0.551627 -0.000813 0
0.551746 -0.000792 0
0.551869 -0.000747 0
0.551990 -0.000667 0
0.552105 -0.000543 0
0.552202 -0.000363 0
0.552263 -0.000132 0
0.552265 -0.000005 0
0.000000 0.000000 0
0.000000 0.000000 0
0.000000 0.000000 0
0.000000 0.000000 0
0.000000 0.000000 0
0.000000 0.000000 0
0.000000 0.000000 0
0.000000 0.000000 0
0.000000 0.000000 0
0.000000 -0.022855 0
0.000000 -0.000005 0
-0.013428 0.063273 0
-0.027945 0.083586 0
-0.036970 0.083395 0
-0.040714 0.075996 0
-0.040371 0.067015 0
-0.036672 0.058370 0
-0.029889 0.050507 0
-0.020309 0.043162 0
-0.007903 0.035736 0
0.007746 0.027832 0
0.027232 0.018870 0
0.050277 0.007796 0
0.076042 -0.005424 0
0.103346 -0.019227 0
0.130580 -0.032546 0
0.156944 -0.045160 0
0.182598 -0.056803 0
0.207554 -0.067361 0
0.231730 -0.076700 0
0.255203 -0.084745 0
0.277927 -0.091526 0
0.299854 -0.097056 0
0.320971 -0.101354 0
0.341263 -0.104453 0
0.360734 -0.106403 0
0.379403 -0.107283 0
0.397262 -0.107192 0
0.414296 -0.106225 0
0.430502 -0.104473 0
0.445893 -0.102031 0
0.460479 -0.098997 0
0.474267 -0.095471 0
0.487269 -0.091545 0
0.499499 -0.087309 0
0.510971 -0.082845 0
0.521700 -0.078229 0
0.531705 -0.073529 0
0.541006 -0.068806 0
0.549624 -0.064110 0
0.557585 -0.059486 0
0.564916 -0.054971 0
0.571646 -0.050597 0
0.577803 -0.046387 0
0.583418 -0.042362 0
0.588523 -0.038536 0
0.593147 -0.034921 0
0.597323 -0.031522 0
0.601080 -0.028343 0
0.604447 -0.025385 0
0.607454 -0.022645 0
0.610128 -0.020120 0
0.612495 -0.017804 0
0.614582 -0.015688 0
0.616411 -0.013766 0
0.618007 -0.012027 0
0.619390 -0.010462 0
0.620581 -0.009061 0
0.621599 -0.007812 0
0.622461 -0.006705 0
0.623185 -0.005729 0
0.623785 -0.004875 0
0.624275 -0.004132 0
0.624669 -0.003490 0
0.624978 -0.002939 0
0.625214 -0.002471 0
0.625386 -0.002078 0
0.625504 -0.001751 0
0.625575 -0.001483 0
0.625609 -0.001268 0
0.625610 -0.001098 0
0.625587 -0.000969 0
0.625543 -0.000874 0
0.625485 -0.000809 0
0.625417 -0.000769 0
0.625342 -0.000749 0
0.625265 -0.000746 0
0.625187 -0.000756 0
0.625113 -0.000776 0
0.625043 -0.000801 0
0.624981 -0.000827 0
0.624929 -0.000852 0
0.624887 -0.000870 0
0.624859 -0.000876 0
0.624843 -0.000864 0
0.624843 -0.000825 0
0.624856 -0.000749 0
0.624882 -0.000621 0
0.624914 -0.000426 0
0.624942 -0.000157 0
0.624944 -0.000007 0
0.000000 0.000000 0
0.000000 0.000000 0
0.000000 0.000000 0
0.000000 0.000000 0
0.000000 0.000000 0
0.000000 0.000000 0
0.000000 0.000000 0
0.000000 0.000000 0
0.000000 0.000000 0
0.000000 -0.029915 0
0.000000 -0.000004 0
-0.014120 0.076248 0
-0.018877 0.091503 0
-0.013189 0.084319 0
-0.001262 0.071712 0
0.014142 0.058921 0
0.032372 0.046980 0
0.053495 0.036039 0
0.077906 0.025743 0
0.105418 0.015076 0
0.135345 0.003135 0
0.167089 -0.009869 0
0.199780 -0.023065 0
0.231980 -0.036090 0
0.262706 -0.048798 0
0.291944 -0.060967 0
0.319629 -0.072378 0
0.345807 -0.082848 0
0.370534 -0.092249 0
0.393860 -0.100477 0
0.415886 -0.107468 0
0.436679 -0.113213 0
0.456284 -0.117720 0
0.474752 -0.121015 0
0.492130 -0.123137 0
0.508474 -0.124146 0
0.523838 -0.124114 0
0.538266 -0.123130 0
0.551793 -0.121288 0
0.564454 -0.118682 0
0.576287 -0.115410 0
0.587326 -0.111571 0
0.597604 -0.107261 0
0.607152 -0.102575 0
0.616001 -0.097601 0
0.624179 -0.092422 0
0.631715 -0.087116 0
0.638637 -0.081750 0
0.644972 -0.076386 0
0.650750 -0.071076 0
0.655998 -0.065867 0
0.660746 -0.060796 0
0.665023 -0.055894 0
0.668858 -0.051188 0
0.672279 -0.046697 0
0.675317 -0.042435 0
0.677997 -0.038413 0
0.680347 -0.034637 0
0.682394 -0.031109 0
0.684162 -0.027829 0
0.685676 -0.024793 0
0.686958 -0.021997 0
0.688029 -0.019433 0
0.688911 -0.017093 0
0.689621 -0.014966 0
0.690179 -0.013043 0
0.690600 -0.011313 0
0.690900 -0.009762 0
0.691093 -0.008381 0
0.691192 -0.007156 0
0.691209 -0.006077 0
0.691154 -0.005131 0
0.691038 -0.004307 0
0.690870 -0.003595 0
0.690657 -0.002984 0
0.690407 -0.002465 0
0.690126 -0.002028 0
0.689821 -0.001664 0
0.689497 -0.001366 0
0.689158 -0.001126 0
0.688809 -0.000938 0
0.688454 -0.000794 0
0.688097 -0.000689 0
0.687740 -0.000618 0
0.687386 -0.000575 0
0.687037 -0.000556 0
0.686697 -0.000556 0
0.686366 -0.000572 0
0.686047 -0.000599 0
0.685741 -0.000633 0
0.685451 -0.000672 0
0.685178 -0.000710 0
0.684926 -0.000745 0
0.684695 -0.000769 0
0.684491 -0.000777 0
0.684315 -0.000760 0
0.684172 -0.000706 0
0.684065 -0.000601 0
0.683998 -0.000423 0
0.683971 -0.000161 0
0.683972 -0.000008 0
0.000000 0.000000 0
0.000000 0.000000 0
0.000000 0.000000 0
0.000000 0.000000 0
0.000000 0.000000 0
0.000000 0.000000 0
0.000000 0.000000 0
0.000000 0.000000 0
0.000000 0.000000 0
0.000000 -0.036975 0
0.000000 -0.000001 0
-0.005572 0.082161 0
0.015016 0.082660 0
0.046238 0.065773 0
0.080942 0.048655 0
0.117778 0.033377 0
0.155658 0.019019 0
0.193937 0.004976 0
0.232472 -0.008759 0
0.270998 -0.021701 0
0.308833 -0.033837 0
0.344997 -0.045565 0
0.379122 -0.057099 0
0.411167 -0.068354 0
0.441094 -0.079192 0
0.468909 -0.089466 0
0.494661 -0.099018 0
0.518442 -0.107707 0
0.540358 -0.115416 0
0.560528 -0.122055 0
0.579082 -0.127566 0
0.596138 -0.131923 0
0.611803 -0.135127 0
0.626176 -0.137199 0
0.639350 -0.138175 0
0.651416 -0.138111 0
0.662459 -0.137075 0
0.672552 -0.135146 0
0.681764 -0.132413 0
0.690155 -0.128967 0
0.697783 -0.124902 0
0.704702 -0.120315 0
0.710959 -0.115298 0
0.716600 -0.109942 0
0.721666 -0.104336 0
0.726196 -0.098559 0
0.730225 -0.092686 0
0.733788 -0.086787 0
0.736916 -0.080919 0
0.739641 -0.075136 0
0.741991 -0.069482 0
0.743994 -0.063996 0
0.745679 -0.058708 0
0.747070 -0.053644 0
0.748193 -0.048821 0
0.749072 -0.044254 0
0.749729 -0.039952 0
0.750186 -0.035919 0
0.750462 -0.032158 0
0.750578 -0.028667 0
0.750551 -0.025441 0
0.750396 -0.022474 0
0.750131 -0.019757 0
0.749768 -0.017281 0
0.749322 -0.015034 0
0.748804 -0.013006 0
0.748225 -0.011183 0
0.747595 -0.009553 0
0.746924 -0.008103 0
0.746219 -0.006820 0
0.745488 -0.005692 0
0.744737 -0.004705 0
0.743972 -0.003848 0
0.743197 -0.003108 0
0.742416 -0.002476 0
0.741634 -0.001941 0
0.740854 -0.001492 0
0.740079 -0.001122 0
0.739313 -0.000820 0
0.738558 -0.000580 0
0.737815 -0.000395 0
0.737086 -0.000257 0
0.736372 -0.000160 0
0.735674 -0.000098 0
0.734994 -0.000066 0
0.734331 -0.000060 0
0.733688 -0.000075 0
0.733065 -0.000106 0
0.732464 -0.000151 0
0.731886 -0.000205 0
0.731333 -0.000265 0
0.730808 -0.000327 0
0.730312 -0.000387 0
0.729850 -0.000441 0
0.729426 -0.000484 0
0.729047 -0.000506 0
0.728720 -0.000499 0
0.728456 -0.000448 0
0.728268 -0.000331 0
0.728171 -0.000131 0
0.728172 -0.000009 0
-0.500000 0.000000 0
-0.471736 0.000000 0
-0.430302 0.000000 0
-0.388995 0.000000 0
-0.352208 0.000000 0
-0.321402 0.000000 0
-0.297001 0.000000 0
-0.279225 0.000000 0
-0.269000 0.000000 0
-0.270293 -0.035491 0
0.000000 0.000001 0
0.064720 0.061245 0
0.134859 0.039691 0
0.198334 0.018381 0
0.255284 0.000164 0
0.307502 -0.015795 0
0.355885 -0.029175 0
0.400746 -0.040775 0
0.442008 -0.051318 0
0.479918 -0.061282 0
0.514941 -0.070861 0
0.547369 -0.080158 0
0.577269 -0.089240 0
0.604700 -0.098068 0
0.629746 -0.106539 0
0.652500 -0.114529 0
0.673066 -0.121906 0
0.691567 -0.128545 0
0.708138 -0.134339 0
0.722921 -0.139204 0
0.736060 -0.143079 0
0.747692 -0.145933 0
0.757946 -0.147756 0
0.766941 -0.148561 0
0.774792 -0.148378 0
0.781607 -0.147255 0
0.787483 -0.145249 0
0.792512 -0.142435 0
0.796774 -0.138890 0
0.800345 -0.134701 0
0.803292 -0.129957 0
0.805680 -0.124747 0
0.807564 -0.119160 0
0.808997 -0.113282 0
0.810026 -0.107196 0