# vtk DataFile Version 2.0
generated by CFD-lab course output (written by Tobias Neckel) 
ASCII

DATASET STRUCTURED_GRID
DIMENSIONS  101 21 1 
POINTS 2121 float

0.000000 0.000000 0
0.100000 0.000000 0
0.200000 0.000000 0
0.300000 0.000000 0
0.400000 0.000000 0
0.500000 0.000000 0
0.600000 0.000000 0
0.700000 0.000000 0
0.800000 0.000000 0
0.900000 0.000000 0
1.000000 0.000000 0
1.100000 0.000000 0
1.200000 0.000000 0
1.300000 0.000000 0
1.400000 0.000000 0
1.500000 0.000000 0
1.600000 0.000000 0
1.700000 0.000000 0
1.800000 0.000000 0
1.900000 0.000000 0
2.000000 0.000000 0
2.100000 0.000000 0
2.200000 0.000000 0
2.300000 0.000000 0
2.400000 0.000000 0
2.500000 0.000000 0
2.600000 0.000000 0
2.700000 0.000000 0
2.800000 0.000000 0
2.900000 0.000000 0
3.000000 0.000000 0
3.100000 0.000000 0
3.200000 0.000000 0
3.300000 0.000000 0
3.400000 0.000000 0
3.500000 0.000000 0
3.600000 0.000000 0
3.700000 0.000000 0
3.800000 0.000000 0
3.900000 0.000000 0
4.000000 0.000000 0
4.100000 0.000000 0
4.200000 0.000000 0
4.300000 0.000000 0
4.400000 0.000000 0
4.500000 0.000000 0
4.600000 0.000000 0
4.700000 0.000000 0
4.800000 0.000000 0
4.900000 0.000000 0
5.000000 0.000000 0
5.100000 0.000000 0
5.200000 0.000000 0
5.300000 0.000000 0
5.400000 0.000000 0
5.500000 0.000000 0
5.600000 0.000000 0
5.700000 0.000000 0
5.800000 0.000000 0
5.900000 0.000000 0
6.000000 0.000000 0
6.100000 0.000000 0
6.200000 0.000000 0
6.300000 0.000000 0
6.400000 0.000000 0
6.500000 0.000000 0
6.600000 0.000000 0
6.700000 0.000000 0
6.800000 0.000000 0
6.900000 0.000000 0
7.000000 0.000000 0
7.100000 0.000000 0
7.200000 0.000000 0
7.300000 0.000000 0
7.400000 0.000000 0
7.500000 0.000000 0
7.600000 0.000000 0
7.700000 0.000000 0
7.800000 0.000000 0
7.900000 0.000000 0
8.000000 0.000000 0
8.100000 0.000000 0
8.200000 0.000000 0
8.300000 0.000000 0
8.400000 0.000000 0
8.500000 0.000000 0
8.600000 0.000000 0
8.700000 0.000000 0
8.800000 0.000000 0
8.900000 0.000000 0
9.000000 0.000000 0
9.100000 0.000000 0
9.200000 0.000000 0
9.300000 0.000000 0
9.400000 0.000000 0
9.500000 0.000000 0
9.600000 0.000000 0
9.700000 0.000000 0
9.800000 0.000000 0
9.900000 0.000000 0
10.000000 0.000000 0
0.000000 0.100000 0
0.100000 0.100000 0
0.200000 0.100000 0
0.300000 0.100000 0
0.400000 0.100000 0
0.500000 0.100000 0
0.600000 0.100000 0
0.700000 0.100000 0
0.800000 0.100000 0
0.900000 0.100000 0
1.000000 0.100000 0
1.100000 0.100000 0
1.200000 0.100000 0
1.300000 0.100000 0
1.400000 0.100000 0
1.500000 0.100000 0
1.600000 0.100000 0
1.700000 0.100000 0
1.800000 0.100000 0
1.900000 0.100000 0
2.000000 0.100000 0
2.100000 0.100000 0
2.200000 0.100000 0
2.300000 0.100000 0
2.400000 0.100000 0
2.500000 0.100000 0
2.600000 0.100000 0
2.700000 0.100000 0
2.800000 0.100000 0
2.900000 0.100000 0
3.000000 0.100000 0
3.100000 0.100000 0
3.200000 0.100000 0
3.300000 0.100000 0
3.400000 0.100000 0
3.500000 0.100000 0
3.600000 0.100000 0
3.700000 0.100000 0
3.800000 0.100000 0
3.900000 0.100000 0
4.000000 0.100000 0
4.100000 0.100000 0
4.200000 0.100000 0
4.300000 0.100000 0
4.400000 0.100000 0
4.500000 0.100000 0
4.600000 0.100000 0
4.700000 0.100000 0
4.800000 0.100000 0
4.900000 0.100000 0
5.000000 0.100000 0
5.100000 0.100000 0
5.200000 0.100000 0
5.300000 0.100000 0
5.400000 0.100000 0
5.500000 0.100000 0
5.600000 0.100000 0
5.700000 0.100000 0
5.800000 0.100000 0
5.900000 0.100000 0
6.000000 0.100000 0
6.100000 0.100000 0
6.200000 0.100000 0
6.300000 0.100000 0
6.400000 0.100000 0
6.500000 0.100000 0
6.600000 0.100000 0
6.700000 0.100000 0
6.800000 0.100000 0
6.900000 0.100000 0
7.000000 0.100000 0
7.100000 0.100000 0
7.200000 0.100000 0
7.300000 0.100000 0
7.400000 0.100000 0
7.500000 0.100000 0
7.600000 0.100000 0
7.700000 0.100000 0
7.800000 0.100000 0
7.900000 0.100000 0
8.000000 0.100000 0
8.100000 0.100000 0
8.200000 0.100000 0
8.300000 0.100000 0
8.400000 0.100000 0
8.500000 0.100000 0
8.600000 0.100000 0
8.700000 0.100000 0
8.800000 0.100000 0
8.900000 0.100000 0
9.000000 0.100000 0
9.100000 0.100000 0
9.200000 0.100000 0
9.300000 0.100000 0
9.400000 0.100000 0
9.500000 0.100000 0
9.600000 0.100000 0
9.700000 0.100000 0
9.800000 0.100000 0
9.900000 0.100000 0
10.000000 0.100000 0
0.000000 0.200000 0
0.100000 0.200000 0
0.200000 0.200000 0
0.300000 0.200000 0
0.400000 0.200000 0
0.500000 0.200000 0
0.600000 0.200000 0
0.700000 0.200000 0
0.800000 0.200000 0
0.900000 0.200000 0
1.000000 0.200000 0
1.100000 0.200000 0
1.200000 0.200000 0
1.300000 0.200000 0
1.400000 0.200000 0
1.500000 0.200000 0
1.600000 0.200000 0
1.700000 0.200000 0
1.800000 0.200000 0
1.900000 0.200000 0
2.000000 0.200000 0
2.100000 0.200000 0
2.200000 0.200000 0
2.300000 0.200000 0
2.400000 0.200000 0
2.500000 0.200000 0
2.600000 0.200000 0
2.700000 0.200000 0
2.800000 0.200000 0
2.900000 0.200000 0
3.000000 0.200000 0
3.100000 0.200000 0
3.200000 0.200000 0
3.300000 0.200000 0
3.400000 0.200000 0
3.500000 0.200000 0
3.600000 0.200000 0
3.700000 0.200000 0
3.800000 0.200000 0
3.900000 0.200000 0
4.000000 0.200000 0
4.100000 0.200000 0
4.200000 0.200000 0
4.300000 0.200000 0
4.400000 0.200000 0
4.500000 0.200000 0
4.600000 0.200000 0
4.700000 0.200000 0
4.800000 0.200000 0
4.900000 0.200000 0
5.000000 0.200000 0
5.100000 0.200000 0
5.200000 0.200000 0
5.300000 0.200000 0
5.400000 0.200000 0
5.500000 0.200000 0
5.600000 0.200000 0
5.700000 0.200000 0
5.800000 0.200000 0
5.900000 0.200000 0
6.000000 0.200000 0
6.100000 0.200000 0
6.200000 0.200000 0
6.300000 0.200000 0
6.400000 0.200000 0
6.500000 0.200000 0
6.600000 0.200000 0
6.700000 0.200000 0
6.800000 0.200000 0
6.900000 0.200000 0
7.000000 0.200000 0
7.100000 0.200000 0
7.200000 0.200000 0
7.300000 0.200000 0
7.400000 0.200000 0
7.500000 0.200000 0
7.600000 0.200000 0
7.700000 0.200000 0
7.800000 0.200000 0
7.900000 0.200000 0
8.000000 0.200000 0
8.100000 0.200000 0
8.200000 0.200000 0
8.300000 0.200000 0
8.400000 0.200000 0
8.500000 0.200000 0
8.600000 0.200000 0
8.700000 0.200000 0
8.800000 0.200000 0
8.900000 0.200000 0
9.000000 0.200000 0
9.100000 0.200000 0
9.200000 0.200000 0
9.300000 0.200000 0
9.400000 0.200000 0
9.500000 0.200000 0
9.600000 0.200000 0
9.700000 0.200000 0
9.800000 0.200000 0
9.900000 0.200000 0
10.000000 0.200000 0
0.000000 0.300000 0
0.100000 0.300000 0
0.200000 0.300000 0
0.300000 0.300000 0
0.400000 0.300000 0
0.500000 0.300000 0
0.600000 0.300000 0
0.700000 0.300000 0
0.800000 0.300000 0
0.900000 0.300000 0
1.000000 0.300000 0
1.100000 0.300000 0
1.200000 0.300000 0
1.300000 0.300000 0
1.400000 0.300000 0
1.500000 0.300000 0
1.600000 0.300000 0
1.700000 0.300000 0
1.800000 0.300000 0
1.900000 0.300000 0
2.000000 0.300000 0
2.100000 0.300000 0
2.200000 0.300000 0
2.300000 0.300000 0
2.400000 0.300000 0
2.500000 0.300000 0
2.600000 0.300000 0
2.700000 0.300000 0
2.800000 0.300000 0
2.900000 0.300000 0
3.000000 0.300000 0
3.100000 0.300000 0
3.200000 0.300000 0
3.300000 0.300000 0
3.400000 0.300000 0
3.500000 0.300000 0
3.600000 0.300000 0
3.700000 0.300000 0
3.800000 0.300000 0
3.900000 0.300000 0
4.000000 0.300000 0
4.100000 0.300000 0
4.200000 0.300000 0
4.300000 0.300000 0
4.400000 0.300000 0
4.500000 0.300000 0
4.600000 0.300000 0
4.700000 0.300000 0
4.800000 0.300000 0
4.900000 0.300000 0
5.000000 0.300000 0
5.100000 0.300000 0
5.200000 0.300000 0
5.300000 0.300000 0
5.400000 0.300000 0
5.500000 0.300000 0
5.600000 0.300000 0
5.700000 0.300000 0
5.800000 0.300000 0
5.900000 0.300000 0
6.000000 0.300000 0
6.100000 0.300000 0
6.200000 0.300000 0
6.300000 0.300000 0
6.400000 0.300000 0
6.500000 0.300000 0
6.600000 0.300000 0
6.700000 0.300000 0
6.800000 0.300000 0
6.900000 0.300000 0
7.000000 0.300000 0
7.100000 0.300000 0
7.200000 0.300000 0
7.300000 0.300000 0
7.400000 0.300000 0
7.500000 0.300000 0
7.600000 0.300000 0
7.700000 0.300000 0
7.800000 0.300000 0
7.900000 0.300000 0
8.000000 0.300000 0
8.100000 0.300000 0
8.200000 0.300000 0
8.300000 0.300000 0
8.400000 0.300000 0
8.500000 0.300000 0
8.600000 0.300000 0
8.700000 0.300000 0
8.800000 0.300000 0
8.900000 0.300000 0
9.000000 0.300000 0
9.100000 0.300000 0
9.200000 0.300000 0
9.300000 0.300000 0
9.400000 0.300000 0
9.500000 0.300000 0
9.600000 0.300000 0
9.700000 0.300000 0
9.800000 0.300000 0
9.900000 0.300000 0
10.000000 0.300000 0
0.000000 0.400000 0
0.100000 0.400000 0
0.200000 0.400000 0
0.300000 0.400000 0
0.400000 0.400000 0
0.500000 0.400000 0
0.600000 0.400000 0
0.700000 0.400000 0
0.800000 0.400000 0
0.900000 0.400000 0
1.000000 0.400000 0
1.100000 0.400000 0
1.200000 0.400000 0
1.300000 0.400000 0
1.400000 0.400000 0
1.500000 0.400000 0
1.600000 0.400000 0
1.700000 0.400000 0
1.800000 0.400000 0
1.900000 0.400000 0
2.000000 0.400000 0
2.100000 0.400000 0
2.200000 0.400000 0
2.300000 0.400000 0
2.400000 0.400000 0
2.500000 0.400000 0
2.600000 0.400000 0
2.700000 0.400000 0
2.800000 0.400000 0
2.900000 0.400000 0
3.000000 0.400000 0
3.100000 0.400000 0
3.200000 0.400000 0
3.300000 0.400000 0
3.400000 0.400000 0
3.500000 0.400000 0
3.600000 0.400000 0
3.700000 0.400000 0
3.800000 0.400000 0
3.900000 0.400000 0
4.000000 0.400000 0
4.100000 0.400000 0
4.200000 0.400000 0
4.300000 0.400000 0
4.400000 0.400000 0
4.500000 0.400000 0
4.600000 0.400000 0
4.700000 0.400000 0
4.800000 0.400000 0
4.900000 0.400000 0
5.000000 0.400000 0
5.100000 0.400000 0
5.200000 0.400000 0
5.300000 0.400000 0
5.400000 0.400000 0
5.500000 0.400000 0
5.600000 0.400000 0
5.700000 0.400000 0
5.800000 0.400000 0
5.900000 0.400000 0
6.000000 0.400000 0
6.100000 0.400000 0
6.200000 0.400000 0
6.300000 0.400000 0
6.400000 0.400000 0
6.500000 0.400000 0
6.600000 0.400000 0
6.700000 0.400000 0
6.800000 0.400000 0
6.900000 0.400000 0
7.000000 0.400000 0
7.100000 0.400000 0
7.200000 0.400000 0
7.300000 0.400000 0
7.400000 0.400000 0
7.500000 0.400000 0
7.600000 0.400000 0
7.700000 0.400000 0
7.800000 0.400000 0
7.900000 0.400000 0
8.000000 0.400000 0
8.100000 0.400000 0
8.200000 0.400000 0
8.300000 0.400000 0
8.400000 0.400000 0
8.500000 0.400000 0
8.600000 0.400000 0
[...]
POINT_DATA 2121 

VECTORS velocity float
0.000000 0.000000 0
0.000000 0.000000 0
0.000000 0.000000 0
0.000000 0.000000 0
0.000000 0.000000 0
0.000000 0.000000 0
0.000000 0.000000 0
0.000000 0.000000 0
0.000000 0.000000 0
0.000000 0.000000 0
0.000000 0.000000 0
0.000001 0.000000 0
0.000001 0.000000 0
0.000000 0.000000 0
-0.000000 0.000000 0
-0.000000 0.000000 0
0.000000 0.000000 0
0.000001 0.000000 0
0.000000 0.000000 0
-0.000000 0.000000 0
-0.000000 0.000000 0
-0.000000 0.000000 0
0.000000 0.000000 0
0.000000 0.000000 0
0.000000 0.000000 0
-0.000000 0.000000 0
-0.000000 0.000000 0
-0.000000 0.000000 0
-0.000000 0.000000 0
0.000000 0.000000 0
0.000000 0.000000 0
0.000000 0.000000 0
0.000000 0.000000 0
-0.000000 0.000000 0
-0.000000 0.000000 0
0.000000 0.000000 0
0.000000 0.000000 0
0.000000 0.000000 0
-0.000000 0.000000 0
-0.000000 0.000000 0
-0.000000 0.000000 0
0.000000 0.000000 0
0.000000 0.000000 0
0.000000 0.000000 0
-0.000000 0.000000 0
-0.000000 0.000000 0
-0.000000 0.000000 0
0.000000 0.000000 0
0.000000 0.000000 0
-0.000000 0.000000 0
-0.000000 0.000000 0
-0.000000 0.000000 0
-0.000000 0.000000 0
-0.000000 0.000000 0
-0.000000 0.000000 0
0.000000 0.000000 0
-0.000000 0.000000 0
-0.000000 0.000000 0
-0.000000 0.000000 0
-0.000000 0.000000 0
-0.000000 0.000000 0
0.000000 0.000000 0
0.000000 0.000000 0
0.000000 0.000000 0
-0.000000 0.000000 0
-0.000000 0.000000 0
-0.000000 0.000000 0
-0.000000 0.000000 0
-0.000000 0.000000 0
-0.000000 0.000000 0
-0.000000 0.000000 0
-0.000000 0.000000 0
-0.000000 0.000000 0
-0.000000 0.000000 0
-0.000000 0.000000 0
-0.000000 0.000000 0
-0.000000 0.000000 0
-0.000000 0.000000 0
-0.000000 0.000000 0
-0.000000 0.000000 0
-0.000000 0.000000 0
-0.000000 0.000000 0
-0.000000 0.000000 0
-0.000000 0.000000 0
-0.000000 0.000000 0
-0.000000 0.000000 0
-0.000000 0.000000 0
-0.000000 0.000000 0
-0.000000 0.000000 0
-0.000000 0.000000 0
-0.000000 0.000000 0
-0.000000 0.000000 0
-0.000000 0.000000 0
-0.000000 0.000000 0
-0.000000 0.000000 0
-0.000000 0.000000 0
-0.000000 0.000000 0
-0.000000 0.000000 0
-0.000000 0.000000 0
-0.000000 0.000000 0
-0.000000 0.000000 0
0.000000 0.000000 0
0.000000 0.000000 0
0.000000 0.000000 0
0.000000 0.000000 0
0.000000 0.000000 0
0.000000 0.000000 0
0.000000 0.000000 0
0.000000 0.000000 0
0.000000 0.000000 0
0.000000 -0.000188 0
0.000000 0.000001 0
-0.002137 0.001758 0
-0.008370 0.003962 0
-0.016813 0.005085 0
-0.026023 0.005432 0
-0.035301 0.005466 0
-0.044432 0.005450 0
-0.053426 0.005488 0
-0.062358 0.005600 0
-0.071301 0.005771 0
-0.080284 0.005968 0
-0.089270 0.006140 0
-0.098136 0.006223 0
-0.106660 0.006141 0
-0.114527 0.005830 0
-0.121365 0.005254 0
-0.126805 0.004414 0
-0.130534 0.003342 0
-0.132315 0.002087 0
-0.132004 0.000731 0
-0.129571 -0.000655 0
-0.125127 -0.002029 0
-0.118865 -0.003329 0
-0.111027 -0.004491 0
-0.101858 -0.005507 0
-0.091563 -0.006379 0
-0.080339 -0.007083 0
-0.068431 -0.007588 0
-0.056093 -0.007905 0
-0.043545 -0.008119 0
-0.030847 -0.008226 0
-0.018200 -0.008160 0
-0.005753 -0.007995 0
0.006295 -0.007768 0
0.017842 -0.007439 0
0.028822 -0.007022 0
0.039184 -0.006560 0
0.048899 -0.006088 0
0.057953 -0.005615 0
0.066341 -0.005146 0
0.074068 -0.004687 0
0.081148 -0.004243 0
0.087599 -0.003818 0
0.093446 -0.003415 0
0.098718 -0.003037 0
0.103446 -0.002685 0
0.107663 -0.002360 0
0.111406 -0.002061 0
0.114710 -0.001790 0
0.117612 -0.001545 0
0.120145 -0.001325 0
0.122345 -0.001129 0
0.124244 -0.000955 0
0.125875 -0.000802 0
0.127266 -0.000668 0
0.128444 -0.000552 0
0.129437 -0.000452 0
0.130268 -0.000366 0
0.130957 -0.000293 0
0.131526 -0.000233 0
0.131991 -0.000182 0
0.132369 -0.000140 0
0.132674 -0.000107 0
0.132918 -0.000080 0
0.133114 -0.000060 0
0.133270 -0.000044 0
0.133396 -0.000033 0
0.133498 -0.000026 0
0.133582 -0.000022 0
0.133655 -0.000020 0
0.133721 -0.000021 0
0.133784 -0.000023 0
0.133846 -0.000026 0
0.133910 -0.000030 0
0.133978 -0.000035 0
0.134051 -0.000041 0
0.134130 -0.000046 0
0.134217 -0.000052 0
0.134310 -0.000057 0
0.134410 -0.000061 0
0.134515 -0.000065 0
0.134625 -0.000067 0
0.134738 -0.000068 0
0.134851 -0.000067 0
0.134962 -0.000064 0
0.135065 -0.000058 0
0.135157 -0.000048 0
0.135232 -0.000035 0
0.135284 -0.000020 0
0.135309 -0.000006 0
0.135309 -0.000000 0
0.000000 0.000000 0
0.000000 0.000000 0
0.000000 0.000000 0
0.000000 0.000000 0
0.000000 0.000000 0
0.000000 0.000000 0
0.000000 0.000000 0
0.000000 0.000000 0
0.000000 0.000000 0
0.000000 -0.002137 0
0.000000 0.000002 0
-0.005613 0.008372 0
-0.017549 0.014675 0
-0.032200 0.017652 0
-0.047498 0.018488 0
-0.062512 0.018409 0
-0.076947 0.018124 0
-0.090792 0.017925 0
-0.104122 0.017874 0
-0.116995 0.017925 0
-0.129403 0.017969 0
-0.141246 0.017853 0
-0.152305 0.017390 0
-0.162232 0.016391 0
-0.170558 0.014705 0
-0.176756 0.012277 0
-0.180334 0.009168 0
-0.180944 0.005511 0
-0.178346 0.001470 0
-0.172709 -0.002744 0
-0.164263 -0.006877 0
-0.153349 -0.010706 0
-0.140332 -0.014100 0
-0.125591 -0.017007 0
-0.109475 -0.019464 0
-0.092256 -0.021519 0
-0.074171 -0.023132 0
-0.055500 -0.024246 0
-0.036482 -0.024886 0
-0.017306 -0.025246 0
0.001662 -0.025346 0
0.020289 -0.025094 0
0.038475 -0.024495 0
0.056028 -0.023595 0
0.072853 -0.022527 0
0.088895 -0.021342 0
0.104116 -0.020077 0
0.118477 -0.018768 0
0.131950 -0.017441 0
0.144527 -0.016116 0
0.156209 -0.014807 0
0.167007 -0.013531 0
0.176941 -0.012298 0
0.186038 -0.011119 0
0.194329 -0.009999 0
0.201850 -0.008945 0
0.208643 -0.007961 0
0.214748 -0.007047 0
0.220211 -0.006205 0
0.225075 -0.005435 0
0.229386 -0.004733 0
0.233188 -0.004099 0
0.236525 -0.003530 0
0.239439 -0.003021 0
0.241971 -0.002570 0
0.244160 -0.002172 0
0.246042 -0.001823 0
0.247652 -0.001520 0
0.249022 -0.001258 0
0.250181 -0.001034 0
0.251157 -0.000843 0
0.251975 -0.000683 0
0.252657 -0.000550 0
0.253224 -0.000440 0
0.253694 -0.000352 0
0.254083 -0.000282 0
0.254407 -0.000227 0
0.254678 -0.000187 0
0.254906 -0.000158 0
0.255103 -0.000139 0
0.255275 -0.000128 0
0.255431 -0.000124 0
0.255577 -0.000126 0
0.255717 -0.000132 0
0.255855 -0.000141 0
0.255996 -0.000153 0
0.256140 -0.000166 0
0.256291 -0.000180 0
0.256448 -0.000193 0
0.256613 -0.000205 0
0.256785 -0.000216 0
0.256962 -0.000223 0
0.257143 -0.000226 0
0.257325 -0.000224 0
0.257504 -0.000214 0
0.257673 -0.000196 0
0.257827 -0.000167 0
0.257956 -0.000127 0
0.258050 -0.000076 0
0.258099 -0.000024 0
0.258099 -0.000000 0
0.000000 0.000000 0
0.000000 0.000000 0
0.000000 0.000000 0
0.000000 0.000000 0
0.000000 0.000000 0
0.000000 0.000000 0
0.000000 0.000000 0
0.000000 0.000000 0
0.000000 0.000000 0
0.000000 -0.005802 0
0.000000 0.000001 0
-0.008598 0.019307 0
-0.024780 0.030546 0
-0.043143 0.035031 0
-0.061257 0.035744 0
-0.078234 0.034915 0
-0.093867 0.033731 0
-0.108197 0.032663 0
-0.121313 0.031801 0
-0.133257 0.031051 0
-0.143994 0.030220 0
-0.153407 0.029043 0
-0.161243 0.027208 0
-0.167135 0.024393 0
-0.170564 0.020354 0
-0.170934 0.015030 0
-0.167718 0.008603 0
-0.160667 0.001354 0
-0.150444 -0.006148 0
-0.137619 -0.013353 0
-0.122548 -0.020015 0
-0.105659 -0.025960 0
-0.087252 -0.031086 0
-0.067659 -0.035348 0
-0.047140 -0.038842 0
-0.026014 -0.041683 0
-0.004618 -0.043839 0
0.016877 -0.045277 0
0.038337 -0.046099 0
0.059626 -0.046262 0
0.080426 -0.045822 0
0.100646 -0.044973 0
0.120196 -0.043734 0
0.139059 -0.042146 0
0.157170 -0.040306 0
0.174466 -0.038286 0
0.190906 -0.036142 0
0.206458 -0.033922 0
0.221103 -0.031666 0
0.234832 -0.029405 0
0.247649 -0.027167 0
0.259565 -0.024975 0
0.270599 -0.022849 0
0.280774 -0.020803 0
0.290122 -0.018849 0
0.298674 -0.016999 0
0.306468 -0.015257 0
0.313543 -0.013629 0
0.319938 -0.012117 0
0.325697 -0.010720 0
0.330860 -0.009438 0
0.335471 -0.008268 0
0.339571 -0.007206 0
0.343202 -0.006248 0
0.346402 -0.005389 0
0.349211 -0.004623 0
0.351666 -0.003944 0
0.353802 -0.003346 0
0.355652 -0.002822 0
0.357248 -0.002368 0
0.358618 -0.001976 0
0.359790 -0.001640 0
0.360788 -0.001356 0
0.361637 -0.001117 0
0.362356 -0.000919 0
0.362965 -0.000758 0
0.363480 -0.000628 0
0.363918 -0.000525 0
0.364291 -0.000447 0
0.364613 -0.000389 0
0.364893 -0.000349 0
0.365141 -0.000324 0
0.365365 -0.000311 0
0.365572 -0.000309 0
0.365767 -0.000314 0
0.365957 -0.000325 0
0.366144 -0.000341 0
0.366332 -0.000360 0
0.366522 -0.000379 0
0.366717 -0.000398 0
0.366917 -0.000414 0
0.367121 -0.000426 0
0.367329 -0.000431 0
0.367538 -0.000428 0
0.367744 -0.000412 0
0.367942 -0.000381 0
0.368125 -0.000331 0
0.368284 -0.000258 0
0.368404 -0.000163 0
0.368471 -0.000055 0
0.368471 -0.000000 0
0.000000 0.000000 0
0.000000 0.000000 0
0.000000 0.000000 0
0.000000 0.000000 0
0.000000 0.000000 0
0.000000 0.000000 0
0.000000 0.000000 0
0.000000 0.000000 0
0.000000 0.000000 0
0.000000 -0.010736 0
0.000000 0.000001 0
-0.010684 0.033151 0
-0.028995 0.049218 0
-0.048090 0.054128 0
-0.065511 0.053580 0
-0.080660 0.051021 0
-0.093563 0.048087 0
-0.104393 0.045370 0
-0.113300 0.042933 0
-0.120316 0.040607 0
-0.125373 0.038120 0
-0.128359 0.035102 0
-0.128989 0.031119 0
-0.126896 0.025712 0
-0.121577 0.018504 0
-0.112285 0.009431 0
-0.099179 -0.001098 0
-0.083324 -0.011763 0
-0.065591 -0.021578 0
-0.046365 -0.030641 0
-0.026129 -0.038837 0
-0.005124 -0.046002 0
0.016457 -0.052100 0
0.038451 -0.057119 0
0.060699 -0.061109 0
0.082966 -0.064042 0
0.105003 -0.066024 0
0.126694 -0.067202 0
0.147943 -0.067634 0
0.168623 -0.067334 0
0.188748 -0.066367 0
0.208217 -0.064864 0
0.226955 -0.062908 0
0.244938 -0.060570 0
0.262135 -0.057934 0
0.278515 -0.055078 0
0.294054 -0.052069 0
0.308739 -0.048965 0
0.322563 -0.045815 0
0.335527 -0.042662 0
0.347641 -0.039540 0
0.358921 -0.036481 0
0.369389 -0.033508 0
0.379069 -0.030642 0
0.387991 -0.027899 0
0.396186 -0.025292 0
0.403688 -0.022829 0
0.410531 -0.020517 0
0.416753 -0.018360 0
0.422389 -0.016357 0
0.427478 -0.014508 0
0.432054 -0.012810 0
0.436156 -0.011260 0
0.439818 -0.009852 0
0.443076 -0.008579 0
0.445962 -0.007436 0
0.448509 -0.006414 0
0.450748 -0.005506 0
0.452708 -0.004703 0
0.454417 -0.003999 0
0.455902 -0.003385 0
0.457187 -0.002854 0
0.458294 -0.002397 0
0.459246 -0.002008 0
0.460061 -0.001680 0
0.460757 -0.001406 0
0.461351 -0.001181 0
0.461858 -0.000998 0
0.462292 -0.000853 0
0.462664 -0.000740 0
0.462985 -0.000656 0
0.463265 -0.000596 0
0.463512 -0.000557 0
0.463735 -0.000535 0
0.463939 -0.000526 0
0.464130 -0.000529 0
0.464312 -0.000541 0
0.464490 -0.000558 0
0.464667 -0.000578 0
0.464845 -0.000600 0
0.465025 -0.000620 0
0.465209 -0.000635 0
0.465395 -0.000642 0
0.465584 -0.000638 0
0.465773 -0.000618 0
0.465958 -0.000577 0
0.466132 -0.000509 0
0.466288 -0.000406 0
0.466411 -0.000264 0
0.466483 -0.000091 0
0.466483 -0.000000 0
0.000000 0.000000 0
0.000000 0.000000 0
0.000000 0.000000 0
0.000000 0.000000 0
0.000000 0.000000 0
0.000000 0.000000 0
0.000000 0.000000 0
0.000000 0.000000 0
0.000000 0.000000 0
0.000000 -0.016486 0
0.000000 0.000001 0
-0.012117 0.048299 0
-0.030128 0.067951 0
-0.046483 0.071550 0
-0.059388 0.068317 0
-0.068894 0.062969 0
-0.075382 0.057463 0
-0.079180 0.052399 0
-0.080522 0.047724 0
-0.079407 0.043125 0
-0.075646 0.038264 0
-0.069116 0.032659 0
-0.059413 0.025745 0
-0.045794 0.016981 0
-0.028280 0.005743 0
-0.008066 -0.007368 0
0.013692 -0.020358 0
0.035987 -0.032234 0
0.058721 -0.043107 0
0.081758 -0.052814 0
0.104766 -0.061256 0
0.127650 -0.068546 0
0.150273 -0.074661 0
0.172587 -0.079590 0
0.194488 -0.083357 0
0.215911 -0.085987 0
0.236829 -0.087567 0
0.257148 -0.088218 0
0.276797 -0.088028 0
0.295718 -0.087067 0
0.313915 -0.085416 0
0.331361 -0.083180 0
0.348028 -0.080454 0
0.363905 -0.077326 0
0.378984 -0.073883 0
0.393261 -0.070206 0
0.406733 -0.066367 0
0.419403 -0.062431 0
0.431281 -0.058454 0
0.442378 -0.054484 0
0.452714 -0.050562 0
0.462309 -0.046724 0
0.471190 -0.042997 0
0.479384 -0.039405 0
0.486921 -0.035966 0
0.493833 -0.032695 0
0.500153 -0.029603 0
0.505912 -0.026695 0
0.511144 -0.023975 0
0.515883 -0.021445 0
0.520161 -0.019103 0
0.524009 -0.016946 0
0.527459 -0.014970 0
0.530540 -0.013168 0
0.533283 -0.011532 0
0.535716 -0.010056 0
0.537863 -0.008730 0
0.539752 -0.007545 0
0.541407 -0.006492 0
0.542849 -0.005562 0
0.544100 -0.004745 0
0.545181 -0.004032 0
0.546110 -0.003415 0
0.546905 -0.002884 0
0.547580 -0.002431 0
0.548152 -0.002048 0
0.548634 -0.001729 0
0.549038 -0.001466 0
0.549375 -0.001252 0
0.549656 -0.001082 0
0.549890 -0.000950 0
0.550085 -0.000852 0
0.550250 -0.000781 0
0.550390 -0.000735 0
0.550511 -0.000709 0
0.550620 -0.000699 0
0.550719 -0.000702 0
0.550813 -0.000715 0
0.550905 -0.000734 0
0.550998 -0.000756 0
0.551094 -0.000778 0
0.551194 -0.000796 0
0.551300 -0.000807 0
0.551411 -0.000805 0
0.551527 -0.000785 0
0.551647 -0.000740 0
0.551766 -0.000661 0
0.551878 -0.000537 0
0.551974 -0.000358 0
0.552033 -0.000127 0
0.552033 -0.000000 0
0.000000 0.000000 0
0.000000 0.000000 0
0.000000 0.000000 0
0.000000 0.000000 0
0.000000 0.000000 0
0.000000 0.000000 0
0.000000 0.000000 0
0.000000 0.000000 0
0.000000 0.000000 0
0.000000 -0.022851 0
0.000000 0.000001 0
-0.013430 0.063276 0
-0.027953 0.083585 0
-0.036976 0.083393 0
-0.040713 0.075996 0
-0.040367 0.067017 0
-0.036670 0.058372 0
-0.029890 0.050507 0
-0.020312 0.043160 0
-0.007905 0.035734 0
0.007742 0.027831 0
0.027224 0.018869 0
0.050266 0.007796 0
0.076029 -0.005422 0
0.103333 -0.019224 0
0.130564 -0.032540 0
0.156924 -0.045151 0
0.182572 -0.056793 0
0.207525 -0.067349 0
0.231700 -0.076686 0
0.255171 -0.084729 0
0.277893 -0.091508 0
0.299817 -0.097037 0
0.320931 -0.101334 0
0.341220 -0.104433 0
0.360689 -0.106382 0
0.379356 -0.107262 0
0.397212 -0.107170 0
0.414245 -0.106203 0
0.430449 -0.104452 0
0.445837 -0.102010 0
0.460421 -0.098977 0
0.474207 -0.095451 0
0.487207 -0.091526 0
0.499434 -0.087290 0
0.510904 -0.082827 0
0.521631 -0.078212 0
0.531634 -0.073513 0
0.540932 -0.068790 0
0.549548 -0.064095 0
0.557507 -0.059471 0
0.564836 -0.054957 0
0.571563 -0.050582 0
0.577718 -0.046373 0
0.583331 -0.042348 0
0.588433 -0.038523 0
0.593056 -0.034908 0
0.597229 -0.031509 0
0.600984 -0.028331 0
0.604349 -0.025373 0
0.607353 -0.022633 0
0.610024 -0.020108 0
0.612389 -0.017792 0
0.614473 -0.015677 0
0.616300 -0.013754 0
0.617893 -0.012016 0
0.619273 -0.010451 0
0.620461 -0.009049 0
0.621476 -0.007800 0
0.622336 -0.006693 0
0.623056 -0.005718 0
0.623653 -0.004864 0
0.624141 -0.004120 0
0.624532 -0.003478 0
0.624838 -0.002927 0
0.625071 -0.002459 0
0.625240 -0.002066 0
0.625355 -0.001739 0
0.625423 -0.001471 0
0.625454 -0.001255 0
0.625452 -0.001086 0
0.625426 -0.000956 0
0.625379 -0.000861 0
0.625318 -0.000796 0
0.625247 -0.000756 0
0.625169 -0.000737 0
0.625088 -0.000734 0
0.625008 -0.000744 0
0.624930 -0.000764 0
0.624858 -0.000789 0
0.624793 -0.000816 0
0.624738 -0.000841 0
0.624694 -0.000859 0
0.624662 -0.000866 0
0.624644 -0.000854 0
0.624641 -0.000816 0
0.624652 -0.000740 0
0.624676 -0.000613 0
0.624706 -0.000418 0
0.624732 -0.000151 0
0.624732 -0.000000 0
0.000000 0.000000 0
0.000000 0.000000 0
0.000000 0.000000 0
0.000000 0.000000 0
0.000000 0.000000 0
0.000000 0.000000 0
0.000000 0.000000 0
0.000000 0.000000 0
0.000000 0.000000 0
0.000000 -0.029913 0
0.000000 0.000001 0
-0.014127 0.076249 0
-0.018888 0.091499 0
-0.013193 0.084316 0
-0.001258 0.071713 0
0.014147 0.058924 0
0.032371 0.046983 0
0.053490 0.036038 0
0.077901 0.025741 0
0.105413 0.015076 0
0.135337 0.003136 0
0.167076 -0.009866 0
0.199763 -0.023062 0
0.231963 -0.036086 0
0.262689 -0.048791 0
0.291924 -0.060958 0
0.319605 -0.072366 0
0.345778 -0.082835 0
0.370504 -0.092235 0
0.393829 -0.100461 0
0.415855 -0.107450 0
0.436646 -0.113193 0
0.456249 -0.117699 0
0.474714 -0.120993 0
0.492091 -0.123115 0
0.508433 -0.124123 0
0.523796 -0.124090 0
0.538222 -0.123106 0
0.551748 -0.121264 0
0.564408 -0.118659 0
0.576239 -0.115388 0
0.587277 -0.111549 0
0.597554 -0.107240 0
0.607101 -0.102554 0
0.615948 -0.097580 0
0.624125 -0.092402 0
0.631659 -0.087097 0
0.638580 -0.081732 0
0.644914 -0.076368 0
0.650690 -0.071059 0
0.655936 -0.065850 0
0.660683 -0.060779 0
0.664958 -0.055878 0
0.668792 -0.051172 0
0.672212 -0.046681 0
0.675247 -0.042420 0
0.677926 -0.038398 0
0.680274 -0.034622 0
0.682319 -0.031094 0
0.684086 -0.027814 0
0.685597 -0.024779 0
0.686877 -0.021982 0
0.687947 -0.019419 0
0.688826 -0.017078 0
0.689535 -0.014952 0
0.690090 -0.013029 0
0.690509 -0.011298 0
0.690807 -0.009748 0
0.690997 -0.008367 0
0.691094 -0.007142 0
0.691108 -0.006063 0
0.691051 -0.005117 0
0.690933 -0.004293 0
0.690762 -0.003581 0
0.690547 -0.002970 0
0.690294 -0.002450 0
0.690011 -0.002013 0
0.689703 -0.001649 0
0.689376 -0.001351 0
0.689035 -0.001111 0
0.688683 -0.000922 0
0.688326 -0.000779 0
0.687966 -0.000674 0
0.687606 -0.000603 0
0.687250 -0.000560 0
0.686899 -0.000541 0
0.686556 -0.000541 0
0.686222 -0.000557 0
0.685901 -0.000584 0
0.685592 -0.000619 0
0.685300 -0.000658 0
0.685025 -0.000697 0
0.684770 -0.000731 0
0.684537 -0.000756 0
0.684330 -0.000764 0
0.684152 -0.000748 0
0.684007 -0.000696 0
0.683899 -0.000591 0
0.683830 -0.000414 0
0.683801 -0.000153 0
0.683801 -0.000000 0
0.000000 0.000000 0
0.000000 0.000000 0
0.000000 0.000000 0
0.000000 0.000000 0
0.000000 0.000000 0
0.000000 0.000000 0
0.000000 0.000000 0
0.000000 0.000000 0
0.000000 0.000000 0
0.000000 -0.036974 0
0.000000 0.000000 0
-0.005586 0.082158 0
0.015004 0.082655 0
0.046238 0.065771 0
0.080949 0.048658 0
0.117780 0.033382 0
0.155651 0.019022 0
0.193928 0.004976 0
0.232466 -0.008759 0
0.270992 -0.021698 0
0.308822 -0.033833 0
0.344980 -0.045560 0
0.379103 -0.057093 0
0.411150 -0.068347 0
0.441078 -0.079183 0
0.468889 -0.089455 0
0.494636 -0.099005 0
0.518413 -0.107692 0
0.540330 -0.115400 0
0.560501 -0.122037 0
0.579054 -0.127546 0
0.596109 -0.131902 0
0.611772 -0.135105 0
0.626144 -0.137176 0
0.639318 -0.138152 0
0.651383 -0.138088 0
0.662425 -0.137051 0
0.672518 -0.135122 0
0.681729 -0.132389 0
0.690120 -0.128943 0
0.697747 -0.124879 0
0.704665 -0.120292 0
0.710922 -0.115275 0
0.716562 -0.109920 0
0.721628 -0.104314 0
0.726157 -0.098538 0
0.730186 -0.092666 0
0.733748 -0.086767 0
0.736876 -0.080900 0
0.739600 -0.075117 0
0.741949 -0.069464 0
0.743952 -0.063979 0
0.745636 -0.058691 0
0.747026 -0.053627 0
0.748149 -0.048804 0
0.749027 -0.044237 0
0.749683 -0.039935 0
0.750139 -0.035903 0
0.750414 -0.032142 0
0.750529 -0.028651 0
0.750500 -0.025425 0
0.750344 -0.022458 0
0.750078 -0.019741 0
0.749714 -0.017265 0
0.749266 -0.015018 0
0.748746 -0.012990 0
0.748166 -0.011167 0
0.747535 -0.009537 0
0.746862 -0.008087 0
0.746156 -0.006804 0
0.745423 -0.005675 0
0.744670 -0.004688 0
0.743903 -0.003831 0
0.743126 -0.003092 0
0.742344 -0.002459 0
0.741560 -0.001924 0
0.740778 -0.001475 0
0.740002 -0.001104 0
0.739233 -0.000802 0
0.738477 -0.000563 0
0.737732 -0.000377 0
0.737001 -0.000239 0
0.736286 -0.000142 0
0.735586 -0.000080 0
0.734903 -0.000049 0
0.734239 -0.000043 0
0.733594 -0.000057 0
0.732969 -0.000089 0
0.732366 -0.000134 0
0.731787 -0.000188 0
0.731232 -0.000248 0
0.730704 -0.000311 0
0.730207 -0.000372 0
0.729743 -0.000426 0
0.729317 -0.000469 0
0.728937 -0.000493 0
0.728608 -0.000487 0
0.728343 -0.000436 0
0.728154 -0.000321 0
0.728055 -0.000122 0
0.728056 -0.000000 0
-0.500000 0.000000 0
-0.471723 0.000000 0
-0.430285 0.000000 0
-0.388987 0.000000 0
-0.352214 0.000000 0
-0.321416 0.000000 0
-0.297010 0.000000 0
-0.279218 0.000000 0
-0.268984 0.000000 0
-0.270288 -0.035492 0
0.000000 -0.000002 0
0.064699 0.061239 0
0.134848 0.039685 0
0.198340 0.018381 0
0.255291 0.000170 0
0.307497 -0.015788 0
0.355872 -0.029172 0
0.400736 -0.040774 0
0.442003 -0.051316 0
0.479911 -0.061278 0
0.514927 -0.070855 0
0.547350 -0.080151 0
0.577252 -0.089233 0
0.604686 -0.098059 0
0.629732 -0.106528 0
0.652481 -0.114516 0
0.673042 -0.121892 0
0.691542 -0.128530 0
0.708115 -0.134322 0
0.722900 -0.139185 0
0.736039 -0.143058 0
0.747669 -0.145911 0
0.757922 -0.147734 0
0.766917 -0.148538 0
0.774769 -0.148355 0
0.781584 -0.147230 0
0.787461 -0.145225 0
0.792490 -0.142410 0
0.796752 -0.138866 0
0.800323 -0.134678 0
0.803271 -0.129934 0
0.805659 -0.124724 0
0.807543 -0.119137 0
0.808977 -0.113260 0
0.810006 -0.107175 0