# vtk DataFile Version 2.0
generated by CFD-lab course output (written by Tobias Neckel) 
ASCII

DATASET STRUCTURED_GRID
DIMENSIONS  101 21 1 
POINTS 2121 float

0.000000 0.000000 0
0.100000 0.000000 0
0.200000 0.000000 0
0.300000 0.000000 0
0.400000 0.000000 0
0.500000 0.000000 0
0.600000 0.000000 0
0.700000 0.000000 0
0.800000 0.000000 0
0.900000 0.000000 0
1.000000 0.000000 0
1.100000 0.000000 0
1.200000 0.000000 0
1.300000 0.000000 0
1.400000 0.000000 0
1.500000 0.000000 0
1.600000 0.000000 0
1.700000 0.000000 0
1.800000 0.000000 0
1.900000 0.000000 0
2.000000 0.000000 0
2.100000 0.000000 0
2.200000 0.000000 0
2.300000 0.000000 0
2.400000 0.000000 0
2.500000 0.000000 0
2.600000 0.000000 0
2.700000 0.000000 0
2.800000 0.000000 0
2.900000 0.000000 0
3.000000 0.000000 0
3.100000 0.000000 0
3.200000 0.000000 0
3.300000 0.000000 0
3.400000 0.000000 0
3.500000 0.000000 0
3.600000 0.000000 0
3.700000 0.000000 0
3.800000 0.000000 0
3.900000 0.000000 0
4.000000 0.000000 0
4.100000 0.000000 0
4.200000 0.000000 0
4.300000 0.000000 0
4.400000 0.000000 0
4.500000 0.000000 0
4.600000 0.000000 0
4.700000 0.000000 0
4.800000 0.000000 0
4.900000 0.000000 0
5.000000 0.000000 0
5.100000 0.000000 0
5.200000 0.000000 0
5.300000 0.000000 0
5.400000 0.000000 0
5.500000 0.000000 0
5.600000 0.000000 0
5.700000 0.000000 0
5.800000 0.000000 0
5.900000 0.000000 0
6.000000 0.000000 0
6.100000 0.000000 0
6.200000 0.000000 0
6.300000 0.000000 0
6.400000 0.000000 0
6.500000 0.000000 0
6.600000 0.000000 0
6.700000 0.000000 0
6.800000 0.000000 0
6.900000 0.000000 0
7.000000 0.000000 0
7.100000 0.000000 0
7.200000 0.000000 0
7.300000 0.000000 0
7.400000 0.000000 0
7.500000 0.000000 0
7.600000 0.000000 0
7.700000 0.000000 0
7.800000 0.000000 0
7.900000 0.000000 0
8.000000 0.000000 0
8.100000 0.000000 0
8.200000 0.000000 0
8.300000 0.000000 0
8.400000 0.000000 0
8.500000 0.000000 0
8.600000 0.000000 0
8.700000 0.000000 0
8.800000 0.000000 0
8.900000 0.000000 0
9.000000 0.000000 0
9.100000 0.000000 0
9.200000 0.000000 0
9.300000 0.000000 0
9.400000 0.000000 0
9.500000 0.000000 0
9.600000 0.000000 0
9.700000 0.000000 0
9.800000 0.000000 0
9.900000 0.000000 0
10.000000 0.000000 0
0.000000 0.100000 0
0.100000 0.100000 0
0.200000 0.100000 0
0.300000 0.100000 0
0.400000 0.100000 0
0.500000 0.100000 0
0.600000 0.100000 0
0.700000 0.100000 0
0.800000 0.100000 0
0.900000 0.100000 0
1.000000 0.100000 0
1.100000 0.100000 0
1.200000 0.100000 0
1.300000 0.100000 0
1.400000 0.100000 0
1.500000 0.100000 0
1.600000 0.100000 0
1.700000 0.100000 0
1.800000 0.100000 0
1.900000 0.100000 0
2.000000 0.100000 0
2.100000 0.100000 0
2.200000 0.100000 0
2.300000 0.100000 0
2.400000 0.100000 0
2.500000 0.100000 0
2.600000 0.100000 0
2.700000 0.100000 0
2.800000 0.100000 0
2.900000 0.100000 0
3.000000 0.100000 0
3.100000 0.100000 0
3.200000 0.100000 0
3.300000 0.100000 0
3.400000 0.100000 0
3.500000 0.100000 0
3.600000 0.100000 0
3.700000 0.100000 0
3.800000 0.100000 0
3.900000 0.100000 0
4.000000 0.100000 0
4.100000 0.100000 0
4.200000 0.100000 0
4.300000 0.100000 0
4.400000 0.100000 0
4.500000 0.100000 0
4.600000 0.100000 0
4.700000 0.100000 0
4.800000 0.100000 0
4.900000 0.100000 0
5.000000 0.100000 0
5.100000 0.100000 0
5.200000 0.100000 0
5.300000 0.100000 0
5.400000 0.100000 0
5.500000 0.100000 0
5.600000 0.100000 0
5.700000 0.100000 0
5.800000 0.100000 0
5.900000 0.100000 0
6.000000 0.100000 0
6.100000 0.100000 0
6.200000 0.100000 0
6.300000 0.100000 0
6.400000 0.100000 0
6.500000 0.100000 0
6.600000 0.100000 0
6.700000 0.100000 0
6.800000 0.100000 0
6.900000 0.100000 0
7.000000 0.100000 0
7.100000 0.100000 0
7.200000 0.100000 0
7.300000 0.100000 0
7.400000 0.100000 0
7.500000 0.100000 0
7.600000 0.100000 0
7.700000 0.100000 0
7.800000 0.100000 0
7.900000 0.100000 0
8.000000 0.100000 0
8.100000 0.100000 0
8.200000 0.100000 0
8.300000 0.100000 0
8.400000 0.100000 0
8.500000 0.100000 0
8.600000 0.100000 0
8.700000 0.100000 0
8.800000 0.100000 0
8.900000 0.100000 0
9.000000 0.100000 0
9.100000 0.100000 0
9.200000 0.100000 0
9.300000 0.100000 0
9.400000 0.100000 0
9.500000 0.100000 0
9.600000 0.100000 0
9.700000 0.100000 0
9.800000 0.100000 0
9.900000 0.100000 0
10.000000 0.100000 0
0.000000 0.200000 0
0.100000 0.200000 0
0.200000 0.200000 0
0.300000 0.200000 0
0.400000 0.200000 0
0.500000 0.200000 0
0.600000 0.200000 0
0.700000 0.200000 0
0.800000 0.200000 0
0.900000 0.200000 0
1.000000 0.200000 0
1.100000 0.200000 0
1.200000 0.200000 0
1.300000 0.200000 0
1.400000 0.200000 0
1.500000 0.200000 0
1.600000 0.200000 0
1.700000 0.200000 0
1.800000 0.200000 0
1.900000 0.200000 0
2.000000 0.200000 0
2.100000 0.200000 0
2.200000 0.200000 0
2.300000 0.200000 0
2.400000 0.200000 0
2.500000 0.200000 0
2.600000 0.200000 0
2.700000 0.200000 0
2.800000 0.200000 0
2.900000 0.200000 0
3.000000 0.200000 0
3.100000 0.200000 0
3.200000 0.200000 0
3.300000 0.200000 0
3.400000 0.200000 0
3.500000 0.200000 0
3.600000 0.200000 0
3.700000 0.200000 0
3.800000 0.200000 0
3.900000 0.200000 0
4.000000 0.200000 0
4.100000 0.200000 0
4.200000 0.200000 0
4.300000 0.200000 0
4.400000 0.200000 0
4.500000 0.200000 0
4.600000 0.200000 0
4.700000 0.200000 0
4.800000 0.200000 0
4.900000 0.200000 0
5.000000 0.200000 0
5.100000 0.200000 0
5.200000 0.200000 0
5.300000 0.200000 0
5.400000 0.200000 0
5.500000 0.200000 0
5.600000 0.200000 0
5.700000 0.200000 0
5.800000 0.200000 0
5.900000 0.200000 0
6.000000 0.200000 0
6.100000 0.200000 0
6.200000 0.200000 0
6.300000 0.200000 0
6.400000 0.200000 0
6.500000 0.200000 0
6.600000 0.200000 0
6.700000 0.200000 0
6.800000 0.200000 0
6.900000 0.200000 0
7.000000 0.200000 0
7.100000 0.200000 0
7.200000 0.200000 0
7.300000 0.200000 0
7.400000 0.200000 0
7.500000 0.200000 0
7.600000 0.200000 0
7.700000 0.200000 0
7.800000 0.200000 0
7.900000 0.200000 0
8.000000 0.200000 0
8.100000 0.200000 0
8.200000 0.200000 0
8.300000 0.200000 0
8.400000 0.200000 0
8.500000 0.200000 0
8.600000 0.200000 0
8.700000 0.200000 0
8.800000 0.200000 0
8.900000 0.200000 0
9.000000 0.200000 0
9.100000 0.200000 0
9.200000 0.200000 0
9.300000 0.200000 0
9.400000 0.200000 0
9.500000 0.200000 0
9.600000 0.200000 0
9.700000 0.200000 0
9.800000 0.200000 0
9.900000 0.200000 0
10.000000 0.200000 0
0.000000 0.300000 0
0.100000 0.300000 0
0.200000 0.300000 0
0.300000 0.300000 0
0.400000 0.300000 0
0.500000 0.300000 0
0.600000 0.300000 0
0.700000 0.300000 0
0.800000 0.300000 0
0.900000 0.300000 0
1.000000 0.300000 0
1.100000 0.300000 0
1.200000 0.300000 0
1.300000 0.300000 0
1.400000 0.300000 0
1.500000 0.300000 0
1.600000 0.300000 0
1.700000 0.300000 0
1.800000 0.300000 0
1.900000 0.300000 0
2.000000 0.300000 0
2.100000 0.300000 0
2.200000 0.300000 0
2.300000 0.300000 0
2.400000 0.300000 0
2.500000 0.300000 0
2.600000 0.300000 0
2.700000 0.300000 0
2.800000 0.300000 0
2.900000 0.300000 0
3.000000 0.300000 0
3.100000 0.300000 0
3.200000 0.300000 0
3.300000 0.300000 0
3.400000 0.300000 0
3.500000 0.300000 0
3.600000 0.300000 0
3.700000 0.300000 0
3.800000 0.300000 0
3.900000 0.300000 0
4.000000 0.300000 0
4.100000 0.300000 0
4.200000 0.300000 0
4.300000 0.300000 0
4.400000 0.300000 0
4.500000 0.300000 0
4.600000 0.300000 0
4.700000 0.300000 0
4.800000 0.300000 0
4.900000 0.300000 0
5.000000 0.300000 0
5.100000 0.300000 0
5.200000 0.300000 0
5.300000 0.300000 0
5.400000 0.300000 0
5.500000 0.300000 0
5.600000 0.300000 0
5.700000 0.300000 0
5.800000 0.300000 0
5.900000 0.300000 0
6.000000 0.300000 0
6.100000 0.300000 0
6.200000 0.300000 0
6.300000 0.300000 0
6.400000 0.300000 0
6.500000 0.300000 0
6.600000 0.300000 0
6.700000 0.300000 0
6.800000 0.300000 0
6.900000 0.300000 0
7.000000 0.300000 0
7.100000 0.300000 0
7.200000 0.300000 0
7.300000 0.300000 0
7.400000 0.300000 0
7.500000 0.300000 0
7.600000 0.300000 0
7.700000 0.300000 0
7.800000 0.300000 0
7.900000 0.300000 0
8.000000 0.300000 0
8.100000 0.300000 0
8.200000 0.300000 0
8.300000 0.300000 0
8.400000 0.300000 0
8.500000 0.300000 0
8.600000 0.300000 0
8.700000 0.300000 0
8.800000 0.300000 0
8.900000 0.300000 0
9.000000 0.300000 0
9.100000 0.300000 0
9.200000 0.300000 0
9.300000 0.300000 0
9.400000 0.300000 0
9.500000 0.300000 0
9.600000 0.300000 0
9.700000 0.300000 0
9.800000 0.300000 0
9.900000 0.300000 0
10.000000 0.300000 0
0.000000 0.400000 0
0.100000 0.400000 0
0.200000 0.400000 0
0.300000 0.400000 0
0.400000 0.400000 0
0.500000 0.400000 0
0.600000 0.400000 0
0.700000 0.400000 0
0.800000 0.400000 0
0.900000 0.400000 0
1.000000 0.400000 0
1.100000 0.400000 0
1.200000 0.400000 0
1.300000 0.400000 0
1.400000 0.400000 0
1.500000 0.400000 0
1.600000 0.400000 0
1.700000 0.400000 0
1.800000 0.400000 0
1.900000 0.400000 0
2.000000 0.400000 0
2.100000 0.400000 0
2.200000 0.400000 0
2.300000 0.400000 0
2.400000 0.400000 0
2.500000 0.400000 0
2.600000 0.400000 0
2.700000 0.400000 0
2.800000 0.400000 0
2.900000 0.400000 0
3.000000 0.400000 0
3.100000 0.400000 0
3.200000 0.400000 0
3.300000 0.400000 0
3.400000 0.400000 0
3.500000 0.400000 0
3.600000 0.400000 0
3.700000 0.400000 0
3.800000 0.400000 0
3.900000 0.400000 0
4.000000 0.400000 0
4.100000 0.400000 0
4.200000 0.400000 0
4.300000 0.400000 0
4.400000 0.400000 0
4.500000 0.400000 0
4.600000 0.400000 0
4.700000 0.400000 0
4.800000 0.400000 0
4.900000 0.400000 0
5.000000 0.400000 0
5.100000 0.400000 0
5.200000 0.400000 0
5.300000 0.400000 0
5.400000 0.400000 0
5.500000 0.400000 0
5.600000 0.400000 0
5.700000 0.400000 0
5.800000 0.400000 0
5.900000 0.400000 0
6.000000 0.400000 0
6.100000 0.400000 0
6.200000 0.400000 0
6.300000 0.400000 0
6.400000 0.400000 0
6.500000 0.400000 0
6.600000 0.400000 0
6.700000 0.400000 0
6.800000 0.400000 0
6.900000 0.400000 0
7.000000 0.400000 0
7.100000 0.400000 0
7.200000 0.400000 0
7.300000 0.400000 0
7.400000 0.400000 0
7.500000 0.400000 0
7.600000 0.400000 0
7.700000 0.400000 0
7.800000 0.400000 0
7.900000 0.400000 0
8.000000 0.400000 0
8.100000 0.400000 0
8.200000 0.400000 0
8.300000 0.400000 0
8.400000 0.400000 0
8.500000 0.400000 0
8.600000 0.400000 0
[...]
POINT_DATA 2121 

VECTORS velocity float
0.000000 0.000000 0
0.000000 0.000000 0
0.000000 0.000000 0
0.000000 0.000000 0
0.000000 0.000000 0
0.000000 0.000000 0
0.000000 0.000000 0
0.000000 0.000000 0
0.000000 0.000000 0
0.000000 0.000000 0
0.000000 0.000000 0
-0.000002 0.000000 0
-0.000002 0.000000 0
0.000000 0.000000 0
0.000002 0.000000 0
0.000003 0.000000 0
0.000002 0.000000 0
-0.000000 0.000000 0
-0.000003 0.000000 0
-0.000004 0.000000 0
-0.000002 0.000000 0
0.000001 0.000000 0
0.000004 0.000000 0
0.000005 0.000000 0
0.000002 0.000000 0
-0.000002 0.000000 0
-0.000003 0.000000 0
-0.000002 0.000000 0
0.000001 0.000000 0
0.000002 0.000000 0
0.000002 0.000000 0
0.000002 0.000000 0
0.000001 0.000000 0
0.000001 0.000000 0
-0.000000 0.000000 0
-0.000001 0.000000 0
-0.000001 0.000000 0
-0.000000 0.000000 0
0.000001 0.000000 0
0.000001 0.000000 0
-0.000000 0.000000 0
-0.000002 0.000000 0
-0.000002 0.000000 0
-0.000001 0.000000 0
0.000000 0.000000 0
0.000000 0.000000 0
-0.000001 0.000000 0
-0.000002 0.000000 0
-0.000003 0.000000 0
-0.000002 0.000000 0
-0.000001 0.000000 0
-0.000001 0.000000 0
-0.000002 0.000000 0
-0.000001 0.000000 0
-0.000001 0.000000 0
-0.000001 0.000000 0
-0.000003 0.000000 0
-0.000004 0.000000 0
-0.000003 0.000000 0
-0.000001 0.000000 0
-0.000000 0.000000 0
-0.000001 0.000000 0
-0.000003 0.000000 0
-0.000003 0.000000 0
-0.000003 0.000000 0
-0.000002 0.000000 0
-0.000002 0.000000 0
-0.000002 0.000000 0
-0.000002 0.000000 0
-0.000002 0.000000 0
-0.000002 0.000000 0
-0.000002 0.000000 0
-0.000002 0.000000 0
-0.000002 0.000000 0
-0.000002 0.000000 0
-0.000002 0.000000 0
-0.000002 0.000000 0
-0.000003 0.000000 0
-0.000003 0.000000 0
-0.000002 0.000000 0
-0.000002 0.000000 0
-0.000002 0.000000 0
-0.000002 0.000000 0
-0.000002 0.000000 0
-0.000003 0.000000 0
-0.000003 0.000000 0
-0.000003 0.000000 0
-0.000003 0.000000 0
-0.000003 0.000000 0
-0.000003 0.000000 0
-0.000003 0.000000 0
-0.000003 0.000000 0
-0.000003 0.000000 0
-0.000003 0.000000 0
-0.000003 0.000000 0
-0.000003 0.000000 0
-0.000003 0.000000 0
-0.000003 0.000000 0
-0.000003 0.000000 0
-0.000003 0.000000 0
-0.000003 0.000000 0
0.000000 0.000000 0
0.000000 0.000000 0
0.000000 0.000000 0
0.000000 0.000000 0
0.000000 0.000000 0
0.000000 0.000000 0
0.000000 0.000000 0
0.000000 0.000000 0
0.000000 0.000000 0
0.000000 -0.000189 0
0.000000 -0.000001 0
-0.002141 0.001755 0
-0.008375 0.003960 0
-0.016816 0.005085 0
-0.026025 0.005435 0
-0.035305 0.005471 0
-0.044442 0.005456 0
-0.053446 0.005494 0
-0.062393 0.005605 0
-0.071352 0.005778 0
-0.080351 0.005980 0
-0.089356 0.006158 0
-0.098245 0.006246 0
-0.106797 0.006166 0
-0.114695 0.005855 0
-0.121564 0.005276 0
-0.127027 0.004433 0
-0.130770 0.003356 0
-0.132555 0.002096 0
-0.132236 0.000733 0
-0.129784 -0.000661 0
-0.125310 -0.002043 0
-0.119009 -0.003350 0
-0.111124 -0.004520 0
-0.101902 -0.005544 0
-0.091545 -0.006422 0
-0.080254 -0.007129 0
-0.068276 -0.007634 0
-0.055866 -0.007953 0
-0.043245 -0.008169 0
-0.030475 -0.008276 0
-0.017758 -0.008207 0
-0.005241 -0.008042 0
0.006872 -0.007814 0
0.018481 -0.007478 0
0.029517 -0.007057 0
0.039931 -0.006593 0
0.049694 -0.006119 0
0.058793 -0.005643 0
0.067224 -0.005171 0
0.074991 -0.004710 0
0.082107 -0.004263 0
0.088592 -0.003836 0
0.094471 -0.003430 0
0.099771 -0.003050 0
0.104523 -0.002697 0
0.108762 -0.002371 0
0.112526 -0.002073 0
0.115852 -0.001799 0
0.118774 -0.001552 0
0.121325 -0.001331 0
0.123541 -0.001135 0
0.125455 -0.000961 0
0.127100 -0.000808 0
0.128506 -0.000674 0
0.129699 -0.000557 0
0.130706 -0.000457 0
0.131550 -0.000371 0
0.132253 -0.000299 0
0.132834 -0.000238 0
0.133313 -0.000188 0
0.133705 -0.000147 0
0.134025 -0.000113 0
0.134284 -0.000087 0
0.134494 -0.000066 0
0.134665 -0.000051 0
0.134805 -0.000041 0
0.134922 -0.000033 0
0.135023 -0.000029 0
0.135112 -0.000028 0
0.135194 -0.000028 0
0.135272 -0.000031 0
0.135350 -0.000034 0
0.135431 -0.000038 0
0.135515 -0.000043 0
0.135604 -0.000049 0
0.135700 -0.000054 0
0.135802 -0.000059 0
0.135910 -0.000064 0
0.136025 -0.000068 0
0.136145 -0.000072 0
0.136268 -0.000074 0
0.136394 -0.000074 0
0.136519 -0.000073 0
0.136641 -0.000069 0
0.136754 -0.000062 0
0.136856 -0.000052 0
0.136939 -0.000039 0
0.136999 -0.000023 0
0.137031 -0.000011 0
0.137042 -0.000006 0
0.000000 0.000000 0
0.000000 0.000000 0
0.000000 0.000000 0
0.000000 0.000000 0
0.000000 0.000000 0
0.000000 0.000000 0
0.000000 0.000000 0
0.000000 0.000000 0
0.000000 0.000000 0
0.000000 -0.002138 0
0.000000 -0.000001 0
-0.005618 0.008370 0
-0.017555 0.014676 0
-0.032206 0.017656 0
-0.047506 0.018496 0
-0.062526 0.018421 0
-0.076972 0.018139 0
-0.090833 0.017943 0
-0.104182 0.017897 0
-0.117074 0.017955 0
-0.129502 0.018009 0
-0.141368 0.017902 0
-0.152454 0.017447 0
-0.162411 0.016449 0
-0.170765 0.014760 0
-0.176985 0.012324 0
-0.180572 0.009203 0
-0.181175 0.005529 0
-0.178553 0.001468 0
-0.172878 -0.002770 0
-0.164380 -0.006925 0
-0.153403 -0.010774 0
-0.140313 -0.014186 0
-0.125493 -0.017109 0
-0.109292 -0.019583 0
-0.091979 -0.021650 0
-0.073796 -0.023269 0
-0.055022 -0.024384 0
-0.035900 -0.025028 0
-0.016630 -0.025392 0
0.002432 -0.025490 0
0.021155 -0.025237 0
0.039436 -0.024629 0
0.057077 -0.023718 0
0.073986 -0.022642 0
0.090109 -0.021451 0
0.105407 -0.020180 0
0.119842 -0.018864 0
0.133387 -0.017530 0
0.146031 -0.016198 0
0.157776 -0.014883 0
0.168634 -0.013601 0
0.178626 -0.012362 0
0.187777 -0.011176 0
0.196119 -0.010052 0
0.203686 -0.008995 0
0.210523 -0.008008 0
0.216673 -0.007091 0
0.222180 -0.006245 0
0.227085 -0.005470 0
0.231433 -0.004767 0
0.235271 -0.004132 0
0.238643 -0.003561 0
0.241593 -0.003052 0
0.244159 -0.002599 0
0.246382 -0.002200 0
0.248297 -0.001851 0
0.249939 -0.001548 0
0.251341 -0.001286 0
0.252532 -0.001062 0
0.253540 -0.000872 0
0.254390 -0.000712 0
0.255104 -0.000579 0
0.255704 -0.000470 0
0.256206 -0.000382 0
0.256628 -0.000312 0
0.256985 -0.000259 0
0.257289 -0.000219 0
0.257551 -0.000190 0
0.257782 -0.000171 0
0.257988 -0.000161 0
0.258178 -0.000157 0
0.258358 -0.000159 0
0.258532 -0.000165 0
0.258704 -0.000174 0
0.258878 -0.000186 0
0.259056 -0.000198 0
0.259239 -0.000211 0
0.259428 -0.000224 0
0.259624 -0.000235 0
0.259826 -0.000244 0
0.260033 -0.000250 0
0.260242 -0.000252 0
0.260450 -0.000247 0
0.260654 -0.000236 0
0.260846 -0.000216 0
0.261022 -0.000185 0
0.261171 -0.000144 0
0.261284 -0.000093 0
0.261351 -0.000044 0
0.261371 -0.000022 0
0.000000 0.000000 0
0.000000 0.000000 0
0.000000 0.000000 0
0.000000 0.000000 0
0.000000 0.000000 0
0.000000 0.000000 0
0.000000 0.000000 0
0.000000 0.000000 0
0.000000 0.000000 0
0.000000 -0.005803 0
0.000000 -0.000000 0
-0.008603 0.019308 0
-0.024786 0.030551 0
-0.043151 0.035041 0
-0.061269 0.035758 0
-0.078255 0.034934 0
-0.093899 0.033755 0
-0.108243 0.032694 0
-0.121372 0.031841 0
-0.133328 0.031101 0
-0.144077 0.030283 0
-0.153501 0.029117 0
-0.161351 0.027287 0
-0.167257 0.024470 0
-0.170692 0.020421 0
-0.171056 0.015078 0
-0.167814 0.008624 0
-0.160720 0.001342 0
-0.150442 -0.006198 0
-0.137551 -0.013440 0
-0.122405 -0.020136 0
-0.105436 -0.026111 0
-0.086940 -0.031263 0
-0.067254 -0.035544 0
-0.046637 -0.039060 0
-0.025416 -0.041917 0
-0.003920 -0.044082 0
0.017677 -0.045526 0
0.039239 -0.046346 0
0.060620 -0.046505 0
0.081513 -0.046063 0
0.101827 -0.045210 0
0.121467 -0.043961 0
0.140424 -0.042362 0
0.158623 -0.040511 0
0.176004 -0.038481 0
0.192527 -0.036328 0
0.208160 -0.034098 0
0.222884 -0.031831 0
0.236689 -0.029561 0
0.249578 -0.027314 0
0.261565 -0.025112 0
0.272669 -0.022976 0
0.282911 -0.020922 0
0.292321 -0.018962 0
0.300933 -0.017106 0
0.308787 -0.015359 0
0.315923 -0.013725 0
0.322379 -0.012206 0
0.328193 -0.010805 0
0.333410 -0.009520 0
0.338073 -0.008348 0
0.342227 -0.007283 0
0.345911 -0.006323 0
0.349163 -0.005462 0
0.352023 -0.004694 0
0.354529 -0.004015 0
0.356715 -0.003416 0
0.358615 -0.002893 0
0.360261 -0.002438 0
0.361681 -0.002046 0
0.362904 -0.001711 0
0.363953 -0.001427 0
0.364851 -0.001189 0
0.365620 -0.000992 0
0.366279 -0.000831 0
0.366845 -0.000702 0
0.367333 -0.000600 0
0.367758 -0.000522 0
0.368130 -0.000465 0
0.368461 -0.000425 0
0.368760 -0.000401 0
0.369035 -0.000388 0
0.369292 -0.000385 0
0.369538 -0.000390 0
0.369777 -0.000401 0
0.370014 -0.000415 0
0.370250 -0.000432 0
0.370488 -0.000450 0
0.370730 -0.000467 0
0.370975 -0.000481 0
0.371223 -0.000490 0
0.371473 -0.000492 0
0.371723 -0.000485 0
0.371967 -0.000465 0
0.372202 -0.000430 0
0.372420 -0.000377 0
0.372610 -0.000301 0
0.372761 -0.000204 0
0.372855 -0.000098 0
0.372882 -0.000046 0
0.000000 0.000000 0
0.000000 0.000000 0
0.000000 0.000000 0
0.000000 0.000000 0
0.000000 0.000000 0
0.000000 0.000000 0
0.000000 0.000000 0
0.000000 0.000000 0
0.000000 0.000000 0
0.000000 -0.010738 0
0.000000 -0.000001 0
-0.010689 0.033154 0
-0.028999 0.049227 0
-0.048097 0.054142 0
-0.065523 0.053600 0
-0.080679 0.051046 0
-0.093590 0.048117 0
-0.104427 0.045408 0
-0.113337 0.042981 0
-0.120353 0.040666 0
-0.125405 0.038190 0
-0.128385 0.035180 0
-0.129007 0.031198 0
-0.126903 0.025782 0
-0.121560 0.018552 0
-0.112226 0.009445 0
-0.099058 -0.001129 0
-0.083132 -0.011839 0
-0.065324 -0.021699 0
-0.046022 -0.030806 0
-0.025708 -0.039041 0
-0.004623 -0.046242 0
0.017041 -0.052371 0
0.039121 -0.057415 0
0.061458 -0.061422 0
0.083811 -0.064365 0
0.105935 -0.066358 0
0.127711 -0.067542 0
0.149042 -0.067974 0
0.169807 -0.067671 0
0.190015 -0.066699 0
0.209569 -0.065189 0
0.228390 -0.063223 0
0.246454 -0.060873 0
0.263731 -0.058225 0
0.280189 -0.055358 0
0.295806 -0.052337 0
0.310568 -0.049220 0
0.324467 -0.046058 0
0.337504 -0.042893 0
0.349690 -0.039760 0
0.361042 -0.036689 0
0.371581 -0.033706 0
0.381328 -0.030830 0
0.390314 -0.028080 0
0.398574 -0.025466 0
0.406143 -0.022996 0
0.413054 -0.020676 0
0.419341 -0.018512 0
0.425039 -0.016504 0
0.430189 -0.014652 0
0.434829 -0.012951 0
0.438994 -0.011397 0
0.442720 -0.009986 0
0.446040 -0.008712 0
0.448988 -0.007567 0
0.451597 -0.006543 0
0.453898 -0.005635 0
0.455921 -0.004832 0
0.457693 -0.004128 0
0.459241 -0.003514 0
0.460589 -0.002982 0
0.461759 -0.002526 0
0.462773 -0.002138 0
0.463651 -0.001811 0
0.464410 -0.001538 0
0.465068 -0.001313 0
0.465639 -0.001131 0
0.466136 -0.000987 0
0.466571 -0.000875 0
0.466956 -0.000791 0
0.467299 -0.000731 0
0.467610 -0.000692 0
0.467895 -0.000669 0
0.468162 -0.000660 0
0.468415 -0.000661 0
0.468658 -0.000671 0
0.468897 -0.000686 0
0.469133 -0.000704 0
0.469369 -0.000722 0
0.469606 -0.000738 0
0.469844 -0.000749 0
0.470085 -0.000751 0
0.470325 -0.000742 0
0.470563 -0.000716 0
0.470795 -0.000668 0
0.471014 -0.000593 0
0.471211 -0.000485 0
0.471373 -0.000338 0
0.471479 -0.000165 0
0.471509 -0.000075 0
0.000000 0.000000 0
0.000000 0.000000 0
0.000000 0.000000 0
0.000000 0.000000 0
0.000000 0.000000 0
0.000000 0.000000 0
0.000000 0.000000 0
0.000000 0.000000 0
0.000000 0.000000 0
0.000000 -0.016490 0
0.000000 -0.000002 0
-0.012120 0.048305 0
-0.030130 0.067963 0
-0.046487 0.071567 0
-0.059395 0.068338 0
-0.068905 0.062994 0
-0.075396 0.057494 0
-0.079192 0.052436 0
-0.080525 0.047769 0
-0.079396 0.043178 0
-0.075614 0.038323 0
-0.069058 0.032720 0
-0.059324 0.025799 0
-0.045661 0.017014 0
-0.028092 0.005738 0
-0.007810 -0.007423 0
0.014022 -0.020465 0
0.036392 -0.032388 0
0.059200 -0.043307 0
0.082308 -0.053056 0
0.105386 -0.061536 0
0.128339 -0.068863 0
0.151030 -0.075009 0
0.173413 -0.079964 0
0.195382 -0.083749 0
0.216878 -0.086390 0
0.237868 -0.087979 0
0.258256 -0.088634 0
0.277970 -0.088446 0
0.296958 -0.087482 0
0.315224 -0.085825 0
0.332740 -0.083581 0
0.349477 -0.080844 0
0.365420 -0.077704 0
0.380564 -0.074249 0
0.394906 -0.070559 0
0.408445 -0.066707 0
0.421182 -0.062757 0
0.433123 -0.058767 0
0.444284 -0.054785 0
0.454683 -0.050851 0
0.464343 -0.047000 0
0.473287 -0.043262 0
0.481541 -0.039660 0
0.489138 -0.036214 0
0.496112 -0.032935 0
0.502497 -0.029834 0
0.508321 -0.026918 0
0.513615 -0.024193 0
0.518414 -0.021658 0
0.522753 -0.019313 0
0.526665 -0.017152 0
0.530180 -0.015172 0
0.533326 -0.013368 0
0.536134 -0.011730 0
0.538631 -0.010253 0
0.540844 -0.008926 0
0.542798 -0.007741 0
0.544518 -0.006688 0
0.546028 -0.005758 0
0.547347 -0.004941 0
0.548495 -0.004229 0
0.549492 -0.003612 0
0.550354 -0.003082 0
0.551098 -0.002630 0
0.551738 -0.002249 0
0.552289 -0.001930 0
0.552762 -0.001668 0
0.553168 -0.001455 0
0.553518 -0.001285 0
0.553821 -0.001154 0
0.554085 -0.001055 0
0.554318 -0.000984 0
0.554527 -0.000937 0
0.554716 -0.000909 0
0.554891 -0.000897 0
0.555057 -0.000898 0
0.555216 -0.000907 0
0.555373 -0.000922 0
0.555530 -0.000940 0
0.555687 -0.000957 0
0.555848 -0.000969 0
0.556013 -0.000973 0
0.556181 -0.000964 0
0.556352 -0.000935 0
0.556524 -0.000881 0
0.556693 -0.000793 0
0.556852 -0.000660 0
0.556990 -0.000472 0
0.557087 -0.000235 0
0.557117 -0.000107 0
0.000000 0.000000 0
0.000000 0.000000 0
0.000000 0.000000 0
0.000000 0.000000 0
0.000000 0.000000 0
0.000000 0.000000 0
0.000000 0.000000 0
0.000000 0.000000 0
0.000000 0.000000 0
0.000000 -0.022856 0
0.000000 -0.000002 0
-0.013430 0.063284 0
-0.027951 0.083599 0
-0.036974 0.083411 0
-0.040713 0.076015 0
-0.040367 0.067038 0
-0.036665 0.058396 0
-0.029874 0.050535 0
-0.020275 0.043191 0
-0.007840 0.035765 0
0.007845 0.027859 0
0.027375 0.018889 0
0.050470 0.007792 0
0.076295 -0.005460 0
0.103667 -0.019302 0
0.130969 -0.032666 0
0.157396 -0.045326 0
0.183110 -0.057014 0
0.208123 -0.067615 0
0.232355 -0.076993 0
0.255883 -0.085074 0
0.278660 -0.091888 0
0.300637 -0.097447 0
0.321802 -0.101768 0
0.342144 -0.104885 0
0.361667 -0.106846 0
0.380387 -0.107734 0
0.398293 -0.107647 0
0.415373 -0.106681 0
0.431625 -0.104927 0
0.447066 -0.102479 0
0.461702 -0.099437 0
0.475539 -0.095901 0
0.488588 -0.091964 0
0.500863 -0.087715 0
0.512382 -0.083239 0
0.523161 -0.078610 0
0.533214 -0.073897 0
0.542562 -0.069161 0
0.551227 -0.064453 0
0.559238 -0.059817 0
0.566619 -0.055291 0
0.573395 -0.050906 0
0.579598 -0.046688 0
0.585260 -0.042655 0
0.590416 -0.038821 0
0.595094 -0.035198 0
0.599322 -0.031792 0
0.603128 -0.028609 0
0.606545 -0.025647 0
0.609605 -0.022904 0
0.612334 -0.020376 0
0.614756 -0.018057 0
0.616898 -0.015940 0
0.618784 -0.014016 0
0.620436 -0.012277 0
0.621876 -0.010712 0
0.623125 -0.009311 0
0.624202 -0.008062 0
0.625125 -0.006956 0
0.625909 -0.005981 0
0.626569 -0.005128 0
0.627120 -0.004386 0
0.627576 -0.003745 0
0.627947 -0.003196 0
0.628245 -0.002729 0
0.628481 -0.002337 0
0.628661 -0.002011 0
0.628796 -0.001744 0
0.628893 -0.001529 0
0.628958 -0.001359 0
0.628997 -0.001229 0
0.629017 -0.001134 0
0.629021 -0.001067 0
0.629015 -0.001025 0
0.629002 -0.001003 0
0.628985 -0.000997 0
0.628968 -0.001003 0
0.628952 -0.001017 0
0.628942 -0.001037 0
0.628937 -0.001057 0
0.628941 -0.001075 0
0.628954 -0.001085 0
0.628978 -0.001082 0
0.629014 -0.001059 0
0.629063 -0.001010 0
0.629123 -0.000922 0
0.629192 -0.000782 0
0.629264 -0.000573 0
0.629326 -0.000293 0
0.629353 -0.000137 0
0.000000 0.000000 0
0.000000 0.000000 0
0.000000 0.000000 0
0.000000 0.000000 0
0.000000 0.000000 0
0.000000 0.000000 0
0.000000 0.000000 0
0.000000 0.000000 0
0.000000 0.000000 0
0.000000 -0.029917 0
0.000000 -0.000001 0
-0.014124 0.076259 0
-0.018881 0.091514 0
-0.013185 0.084331 0
-0.001247 0.071726 0
0.014165 0.058937 0
0.032404 0.046993 0
0.053545 0.036046 0
0.077991 0.025745 0
0.105548 0.015069 0
0.135524 0.003113 0
0.167320 -0.009910 0
0.200063 -0.023132 0
0.232317 -0.036191 0
0.263102 -0.048936 0
0.292399 -0.061147 0
0.320138 -0.072600 0
0.346364 -0.083112 0
0.371135 -0.092554 0
0.394501 -0.100819 0
0.416568 -0.107844 0
0.437398 -0.113620 0
0.457037 -0.118154 0
0.475536 -0.121470 0
0.492948 -0.123610 0
0.509326 -0.124629 0
0.524722 -0.124604 0
0.539178 -0.123624 0
0.552732 -0.121783 0
0.565422 -0.119175 0
0.577286 -0.115898 0
0.588358 -0.112050 0
0.598665 -0.107730 0
0.608241 -0.103033 0
0.617118 -0.098047 0
0.625327 -0.092856 0
0.632895 -0.087536 0
0.639847 -0.082158 0
0.646213 -0.076782 0
0.652021 -0.071460 0
0.657304 -0.066238 0
0.662085 -0.061156 0
0.666393 -0.056246 0
0.670259 -0.051532 0
0.673715 -0.047033 0
0.676790 -0.042764 0
0.679510 -0.038734 0
0.681898 -0.034953 0
0.683980 -0.031422 0
0.685787 -0.028139 0
0.687341 -0.025100 0
0.688666 -0.022302 0
0.689781 -0.019736 0
0.690706 -0.017395 0
0.691461 -0.015269 0
0.692064 -0.013346 0
0.692531 -0.011616 0
0.692879 -0.010067 0
0.693120 -0.008687 0
0.693269 -0.007463 0
0.693335 -0.006385 0
0.693331 -0.005441 0
0.693265 -0.004619 0
0.693148 -0.003909 0
0.692988 -0.003300 0
0.692791 -0.002782 0
0.692563 -0.002346 0
0.692311 -0.001984 0
0.692040 -0.001687 0
0.691754 -0.001447 0
0.691458 -0.001259 0
0.691157 -0.001114 0
0.690852 -0.001008 0
0.690547 -0.000935 0
0.690246 -0.000890 0
0.689949 -0.000868 0
0.689660 -0.000864 0
0.689380 -0.000875 0
0.689111 -0.000896 0
0.688855 -0.000925 0
0.688614 -0.000956 0
0.688390 -0.000986 0
0.688184 -0.001011 0
0.688000 -0.001024 0
0.687840 -0.001020 0
0.687707 -0.000990 0
0.687605 -0.000923 0
0.687536 -0.000802 0
0.687504 -0.000606 0
0.687505 -0.000325 0
0.687527 -0.000163 0
0.000000 0.000000 0
0.000000 0.000000 0
0.000000 0.000000 0
0.000000 0.000000 0
0.000000 0.000000 0
0.000000 0.000000 0
0.000000 0.000000 0
0.000000 0.000000 0
0.000000 0.000000 0
0.000000 -0.036978 0
0.000000 0.000001 0
-0.005577 0.082170 0
0.015019 0.082667 0
0.046260 0.065778 0
0.080982 0.048659 0
0.117834 0.033377 0
0.155732 0.019009 0
0.194040 0.004949 0
0.232618 -0.008801 0
0.271193 -0.021756 0
0.309075 -0.033908 0
0.345279 -0.045657 0
0.379443 -0.057218 0
0.411531 -0.068507 0
0.441505 -0.079382 0
0.469365 -0.089693 0
0.495158 -0.099284 0
0.518972 -0.108010 0
0.540917 -0.115756 0
0.561114 -0.122430 0
0.579692 -0.127973 0
0.596769 -0.132358 0
0.612451 -0.135587 0
0.626840 -0.137679 0
0.640031 -0.138671 0
0.652113 -0.138617 0
0.663168 -0.137587 0
0.673271 -0.135662 0
0.682491 -0.132929 0
0.690893 -0.129480 0
0.698535 -0.125410 0
0.705466 -0.120813 0
0.711733 -0.115787 0
0.717382 -0.110421 0
0.722458 -0.104803 0
0.727001 -0.099014 0
0.731043 -0.093129 0
0.734618 -0.087217 0
0.737758 -0.081337 0
0.740497 -0.075542 0
0.742863 -0.069878 0
0.744882 -0.064382 0
0.746579 -0.059086 0
0.747985 -0.054014 0
0.749128 -0.049184 0
0.750029 -0.044610 0
0.750708 -0.040302 0
0.751184 -0.036266 0
0.751481 -0.032503 0
0.751619 -0.029010 0
0.751618 -0.025782 0
0.751490 -0.022814 0
0.751252 -0.020097 0
0.750917 -0.017621 0
0.750500 -0.015375 0
0.750012 -0.013349 0
0.749464 -0.011528 0
0.748866 -0.009899 0
0.748229 -0.008451 0
0.747558 -0.007170 0
0.746861 -0.006044 0
0.746145 -0.005059 0
0.745415 -0.004204 0
0.744676 -0.003468 0
0.743933 -0.002837 0
0.743189 -0.002304 0
0.742447 -0.001857 0
0.741709 -0.001488 0
0.740979 -0.001187 0
0.740260 -0.000948 0
0.739553 -0.000762 0
0.738860 -0.000623 0
0.738183 -0.000525 0
0.737522 -0.000461 0
0.736878 -0.000427 0
0.736253 -0.000417 0
0.735647 -0.000428 0
0.735061 -0.000454 0
0.734497 -0.000493 0
0.733955 -0.000540 0
0.733439 -0.000592 0
0.732950 -0.000645 0
0.732490 -0.000695 0
0.732063 -0.000738 0
0.731675 -0.000767 0
0.731329 -0.000775 0
0.731034 -0.000751 0
0.730799 -0.000681 0
0.730636 -0.000542 0
0.730560 -0.000317 0
0.730575 -0.000182 0
-0.500000 0.000000 0
-0.471716 0.000000 0
-0.430281 0.000000 0
-0.388990 0.000000 0
-0.352220 0.000000 0
-0.321419 0.000000 0
-0.297012 0.000000 0
-0.279227 0.000000 0
-0.268998 0.000000 0
-0.270302 -0.035495 0
0.000000 0.000001 0
0.064725 0.061247 0
0.134888 0.039683 0
0.198393 0.018368 0
0.255364 0.000143 0
0.307597 -0.015826 0
0.356000 -0.029220 0
0.400891 -0.040836 0
0.442191 -0.051395 0
0.480139 -0.061374 0
0.515194 -0.070970 0
0.547649 -0.080289 0
0.577575 -0.089400 0
0.605037 -0.098260 0
0.630117 -0.106765 0
0.652902 -0.114789 0
0.673493 -0.122199 0
0.692011 -0.128872 0
0.708595 -0.134700 0
0.723390 -0.139597 0
0.736538 -0.143501 0
0.748175 -0.146380 0
0.758430 -0.148225 0
0.767425 -0.149048 0
0.775277 -0.148879 0
0.782090 -0.147764 0
0.787961 -0.145764 0
0.792981 -0.142953 0
0.797234 -0.139408 0
0.800799 -0.135216 0
0.803742 -0.130465 0
0.806122 -0.125246 0
0.807997 -0.119650 0
0.809420 -0.113762 0
0.810442 -0.107666 0