# vtk DataFile Version 2.0
generated by CFD-lab course output (written by Tobias Neckel) 
ASCII

DATASET STRUCTURED_GRID
DIMENSIONS  101 21 1 
POINTS 2121 float

0.000000 0.000000 0
0.100000 0.000000 0
0.200000 0.000000 0
0.300000 0.000000 0
0.400000 0.000000 0
0.500000 0.000000 0
0.600000 0.000000 0
0.700000 0.000000 0
0.800000 0.000000 0
0.900000 0.000000 0
1.000000 0.000000 0
1.100000 0.000000 0
1.200000 0.000000 0
1.300000 0.000000 0
1.400000 0.000000 0
1.500000 0.000000 0
1.600000 0.000000 0
1.700000 0.000000 0
1.800000 0.000000 0
1.900000 0.000000 0
2.000000 0.000000 0
2.100000 0.000000 0
2.200000 0.000000 0
2.300000 0.000000 0
2.400000 0.000000 0
2.500000 0.000000 0
2.600000 0.000000 0
2.700000 0.000000 0
2.800000 0.000000 0
2.900000 0.000000 0
3.000000 0.000000 0
3.100000 0.000000 0
3.200000 0.000000 0
3.300000 0.000000 0
3.400000 0.000000 0
3.500000 0.000000 0
3.600000 0.000000 0
3.700000 0.000000 0
3.800000 0.000000 0
3.900000 0.000000 0
4.000000 0.000000 0
4.100000 0.000000 0
4.200000 0.000000 0
4.300000 0.000000 0
4.400000 0.000000 0
4.500000 0.000000 0
4.600000 0.000000 0
4.700000 0.000000 0
4.800000 0.000000 0
4.900000 0.000000 0
5.000000 0.000000 0
5.100000 0.000000 0
5.200000 0.000000 0
5.300000 0.000000 0
5.400000 0.000000 0
5.500000 0.000000 0
5.600000 0.000000 0
5.700000 0.000000 0
5.800000 0.000000 0
5.900000 0.000000 0
6.000000 0.000000 0
6.100000 0.000000 0
6.200000 0.000000 0
6.300000 0.000000 0
6.400000 0.000000 0
6.500000 0.000000 0
6.600000 0.000000 0
6.700000 0.000000 0
6.800000 0.000000 0
6.900000 0.000000 0
7.000000 0.000000 0
7.100000 0.000000 0
7.200000 0.000000 0
7.300000 0.000000 0
7.400000 0.000000 0
7.500000 0.000000 0
7.600000 0.000000 0
7.700000 0.000000 0
7.800000 0.000000 0
7.900000 0.000000 0
8.000000 0.000000 0
8.100000 0.000000 0
8.200000 0.000000 0
8.300000 0.000000 0
8.400000 0.000000 0
8.500000 0.000000 0
8.600000 0.000000 0
8.700000 0.000000 0
8.800000 0.000000 0
8.900000 0.000000 0
9.000000 0.000000 0
9.100000 0.000000 0
9.200000 0.000000 0
9.300000 0.000000 0
9.400000 0.000000 0
9.500000 0.000000 0
9.600000 0.000000 0
9.700000 0.000000 0
9.800000 0.000000 0
9.900000 0.000000 0
10.000000 0.000000 0
0.000000 0.100000 0
0.100000 0.100000 0
0.200000 0.100000 0
0.300000 0.100000 0
0.400000 0.100000 0
0.500000 0.100000 0
0.600000 0.100000 0
0.700000 0.100000 0
0.800000 0.100000 0
0.900000 0.100000 0
1.000000 0.100000 0
1.100000 0.100000 0
1.200000 0.100000 0
1.300000 0.100000 0
1.400000 0.100000 0
1.500000 0.100000 0
1.600000 0.100000 0
1.700000 0.100000 0
1.800000 0.100000 0
1.900000 0.100000 0
2.000000 0.100000 0
2.100000 0.100000 0
2.200000 0.100000 0
2.300000 0.100000 0
2.400000 0.100000 0
2.500000 0.100000 0
2.600000 0.100000 0
2.700000 0.100000 0
2.800000 0.100000 0
2.900000 0.100000 0
3.000000 0.100000 0
3.100000 0.100000 0
3.200000 0.100000 0
3.300000 0.100000 0
3.400000 0.100000 0
3.500000 0.100000 0
3.600000 0.100000 0
3.700000 0.100000 0
3.800000 0.100000 0
3.900000 0.100000 0
4.000000 0.100000 0
4.100000 0.100000 0
4.200000 0.100000 0
4.300000 0.100000 0
4.400000 0.100000 0
4.500000 0.100000 0
4.600000 0.100000 0
4.700000 0.100000 0
4.800000 0.100000 0
4.900000 0.100000 0
5.000000 0.100000 0
5.100000 0.100000 0
5.200000 0.100000 0
5.300000 0.100000 0
5.400000 0.100000 0
5.500000 0.100000 0
5.600000 0.100000 0
5.700000 0.100000 0
5.800000 0.100000 0
5.900000 0.100000 0
6.000000 0.100000 0
6.100000 0.100000 0
6.200000 0.100000 0
6.300000 0.100000 0
6.400000 0.100000 0
6.500000 0.100000 0
6.600000 0.100000 0
6.700000 0.100000 0
6.800000 0.100000 0
6.900000 0.100000 0
7.000000 0.100000 0
7.100000 0.100000 0
7.200000 0.100000 0
7.300000 0.100000 0
7.400000 0.100000 0
7.500000 0.100000 0
7.600000 0.100000 0
7.700000 0.100000 0
7.800000 0.100000 0
7.900000 0.100000 0
8.000000 0.100000 0
8.100000 0.100000 0
8.200000 0.100000 0
8.300000 0.100000 0
8.400000 0.100000 0
8.500000 0.100000 0
8.600000 0.100000 0
8.700000 0.100000 0
8.800000 0.100000 0
8.900000 0.100000 0
9.000000 0.100000 0
9.100000 0.100000 0
9.200000 0.100000 0
9.300000 0.100000 0
9.400000 0.100000 0
9.500000 0.100000 0
9.600000 0.100000 0
9.700000 0.100000 0
9.800000 0.100000 0
9.900000 0.100000 0
10.000000 0.100000 0
0.000000 0.200000 0
0.100000 0.200000 0
0.200000 0.200000 0
0.300000 0.200000 0
0.400000 0.200000 0
0.500000 0.200000 0
0.600000 0.200000 0
0.700000 0.200000 0
0.800000 0.200000 0
0.900000 0.200000 0
1.000000 0.200000 0
1.100000 0.200000 0
1.200000 0.200000 0
1.300000 0.200000 0
1.400000 0.200000 0
1.500000 0.200000 0
1.600000 0.200000 0
1.700000 0.200000 0
1.800000 0.200000 0
1.900000 0.200000 0
2.000000 0.200000 0
2.100000 0.200000 0
2.200000 0.200000 0
2.300000 0.200000 0
2.400000 0.200000 0
2.500000 0.200000 0
2.600000 0.200000 0
2.700000 0.200000 0
2.800000 0.200000 0
2.900000 0.200000 0
3.000000 0.200000 0
3.100000 0.200000 0
3.200000 0.200000 0
3.300000 0.200000 0
3.400000 0.200000 0
3.500000 0.200000 0
3.600000 0.200000 0
3.700000 0.200000 0
3.800000 0.200000 0
3.900000 0.200000 0
4.000000 0.200000 0
4.100000 0.200000 0
4.200000 0.200000 0
4.300000 0.200000 0
4.400000 0.200000 0
4.500000 0.200000 0
4.600000 0.200000 0
4.700000 0.200000 0
4.800000 0.200000 0
4.900000 0.200000 0
5.000000 0.200000 0
5.100000 0.200000 0
5.200000 0.200000 0
5.300000 0.200000 0
5.400000 0.200000 0
5.500000 0.200000 0
5.600000 0.200000 0
5.700000 0.200000 0
5.800000 0.200000 0
5.900000 0.200000 0
6.000000 0.200000 0
6.100000 0.200000 0
6.200000 0.200000 0
6.300000 0.200000 0
6.400000 0.200000 0
6.500000 0.200000 0
6.600000 0.200000 0
6.700000 0.200000 0
6.800000 0.200000 0
6.900000 0.200000 0
7.000000 0.200000 0
7.100000 0.200000 0
7.200000 0.200000 0
7.300000 0.200000 0
7.400000 0.200000 0
7.500000 0.200000 0
7.600000 0.200000 0
7.700000 0.200000 0
7.800000 0.200000 0
7.900000 0.200000 0
8.000000 0.200000 0
8.100000 0.200000 0
8.200000 0.200000 0
8.300000 0.200000 0
8.400000 0.200000 0
8.500000 0.200000 0
8.600000 0.200000 0
8.700000 0.200000 0
8.800000 0.200000 0
8.900000 0.200000 0
9.000000 0.200000 0
9.100000 0.200000 0
9.200000 0.200000 0
9.300000 0.200000 0
9.400000 0.200000 0
9.500000 0.200000 0
9.600000 0.200000 0
9.700000 0.200000 0
9.800000 0.200000 0
9.900000 0.200000 0
10.000000 0.200000 0
0.000000 0.300000 0
0.100000 0.300000 0
0.200000 0.300000 0
0.300000 0.300000 0
0.400000 0.300000 0
0.500000 0.300000 0
0.600000 0.300000 0
0.700000 0.300000 0
0.800000 0.300000 0
0.900000 0.300000 0
1.000000 0.300000 0
1.100000 0.300000 0
1.200000 0.300000 0
1.300000 0.300000 0
1.400000 0.300000 0
1.500000 0.300000 0
1.600000 0.300000 0
1.700000 0.300000 0
1.800000 0.300000 0
1.900000 0.300000 0
2.000000 0.300000 0
2.100000 0.300000 0
2.200000 0.300000 0
2.300000 0.300000 0
2.400000 0.300000 0
2.500000 0.300000 0
2.600000 0.300000 0
2.700000 0.300000 0
2.800000 0.300000 0
2.900000 0.300000 0
3.000000 0.300000 0
3.100000 0.300000 0
3.200000 0.300000 0
3.300000 0.300000 0
3.400000 0.300000 0
3.500000 0.300000 0
3.600000 0.300000 0
3.700000 0.300000 0
3.800000 0.300000 0
3.900000 0.300000 0
4.000000 0.300000 0
4.100000 0.300000 0
4.200000 0.300000 0
4.300000 0.300000 0
4.400000 0.300000 0
4.500000 0.300000 0
4.600000 0.300000 0
4.700000 0.300000 0
4.800000 0.300000 0
4.900000 0.300000 0
5.000000 0.300000 0
5.100000 0.300000 0
5.200000 0.300000 0
5.300000 0.300000 0
5.400000 0.300000 0
5.500000 0.300000 0
5.600000 0.300000 0
5.700000 0.300000 0
5.800000 0.300000 0
5.900000 0.300000 0
6.000000 0.300000 0
6.100000 0.300000 0
6.200000 0.300000 0
6.300000 0.300000 0
6.400000 0.300000 0
6.500000 0.300000 0
6.600000 0.300000 0
6.700000 0.300000 0
6.800000 0.300000 0
6.900000 0.300000 0
7.000000 0.300000 0
7.100000 0.300000 0
7.200000 0.300000 0
7.300000 0.300000 0
7.400000 0.300000 0
7.500000 0.300000 0
7.600000 0.300000 0
7.700000 0.300000 0
7.800000 0.300000 0
7.900000 0.300000 0
8.000000 0.300000 0
8.100000 0.300000 0
8.200000 0.300000 0
8.300000 0.300000 0
8.400000 0.300000 0
8.500000 0.300000 0
8.600000 0.300000 0
8.700000 0.300000 0
8.800000 0.300000 0
8.900000 0.300000 0
9.000000 0.300000 0
9.100000 0.300000 0
9.200000 0.300000 0
9.300000 0.300000 0
9.400000 0.300000 0
9.500000 0.300000 0
9.600000 0.300000 0
9.700000 0.300000 0
9.800000 0.300000 0
9.900000 0.300000 0
10.000000 0.300000 0
0.000000 0.400000 0
0.100000 0.400000 0
0.200000 0.400000 0
0.300000 0.400000 0
0.400000 0.400000 0
0.500000 0.400000 0
0.600000 0.400000 0
0.700000 0.400000 0
0.800000 0.400000 0
0.900000 0.400000 0
1.000000 0.400000 0
1.100000 0.400000 0
1.200000 0.400000 0
1.300000 0.400000 0
1.400000 0.400000 0
1.500000 0.400000 0
1.600000 0.400000 0
1.700000 0.400000 0
1.800000 0.400000 0
1.900000 0.400000 0
2.000000 0.400000 0
2.100000 0.400000 0
2.200000 0.400000 0
2.300000 0.400000 0
2.400000 0.400000 0
2.500000 0.400000 0
2.600000 0.400000 0
2.700000 0.400000 0
2.800000 0.400000 0
2.900000 0.400000 0
3.000000 0.400000 0
3.100000 0.400000 0
3.200000 0.400000 0
3.300000 0.400000 0
3.400000 0.400000 0
3.500000 0.400000 0
3.600000 0.400000 0
3.700000 0.400000 0
3.800000 0.400000 0
3.900000 0.400000 0
4.000000 0.400000 0
4.100000 0.400000 0
4.200000 0.400000 0
4.300000 0.400000 0
4.400000 0.400000 0
4.500000 0.400000 0
4.600000 0.400000 0
4.700000 0.400000 0
4.800000 0.400000 0
4.900000 0.400000 0
5.000000 0.400000 0
5.100000 0.400000 0
5.200000 0.400000 0
5.300000 0.400000 0
5.400000 0.400000 0
5.500000 0.400000 0
5.600000 0.400000 0
5.700000 0.400000 0
5.800000 0.400000 0
5.900000 0.400000 0
6.000000 0.400000 0
6.100000 0.400000 0
6.200000 0.400000 0
6.300000 0.400000 0
6.400000 0.400000 0
6.500000 0.400000 0
6.600000 0.400000 0
6.700000 0.400000 0
6.800000 0.400000 0
6.900000 0.400000 0
7.000000 0.400000 0
7.100000 0.400000 0
7.200000 0.400000 0
7.300000 0.400000 0
7.400000 0.400000 0
7.500000 0.400000 0
7.600000 0.400000 0
7.700000 0.400000 0
7.800000 0.400000 0
7.900000 0.400000 0
8.000000 0.400000 0
8.100000 0.400000 0
8.200000 0.400000 0
8.300000 0.400000 0
8.400000 0.400000 0
8.500000 0.400000 0
8.600000 0.400000 0
[...]
POINT_DATA 2121 

VECTORS velocity float
0.000000 0.000000 0
0.000000 0.000000 0
0.000000 0.000000 0
0.000000 0.000000 0
0.000000 0.000000 0
0.000000 0.000000 0
0.000000 0.000000 0
0.000000 0.000000 0
0.000000 0.000000 0
0.000000 0.000000 0
0.000000 0.000000 0
0.000002 0.000000 0
0.000002 0.000000 0
0.000001 0.000000 0
-0.000001 0.000000 0
-0.000002 0.000000 0
-0.000000 0.000000 0
0.000001 0.000000 0
0.000001 0.000000 0
0.000000 0.000000 0
-0.000000 0.000000 0
-0.000000 0.000000 0
-0.000000 0.000000 0
0.000000 0.000000 0
0.000000 0.000000 0
0.000000 0.000000 0
-0.000000 0.000000 0
-0.000000 0.000000 0
-0.000000 0.000000 0
0.000000 0.000000 0
0.000000 0.000000 0
0.000000 0.000000 0
0.000000 0.000000 0
0.000000 0.000000 0
0.000000 0.000000 0
-0.000000 0.000000 0
-0.000000 0.000000 0
-0.000000 0.000000 0
-0.000000 0.000000 0
0.000000 0.000000 0
0.000000 0.000000 0
-0.000000 0.000000 0
-0.000000 0.000000 0
-0.000000 0.000000 0
0.000000 0.000000 0
0.000000 0.000000 0
0.000000 0.000000 0
0.000000 0.000000 0
0.000000 0.000000 0
0.000000 0.000000 0
0.000000 0.000000 0
0.000000 0.000000 0
0.000000 0.000000 0
0.000000 0.000000 0
0.000000 0.000000 0
0.000000 0.000000 0
0.000000 0.000000 0
0.000000 0.000000 0
0.000000 0.000000 0
0.000000 0.000000 0
0.000000 0.000000 0
0.000000 0.000000 0
0.000000 0.000000 0
0.000000 0.000000 0
0.000000 0.000000 0
0.000000 0.000000 0
0.000000 0.000000 0
0.000000 0.000000 0
0.000000 0.000000 0
0.000000 0.000000 0
0.000000 0.000000 0
0.000000 0.000000 0
0.000000 0.000000 0
0.000000 0.000000 0
0.000000 0.000000 0
0.000000 0.000000 0
0.000000 0.000000 0
0.000000 0.000000 0
0.000000 0.000000 0
0.000000 0.000000 0
0.000000 0.000000 0
0.000000 0.000000 0
0.000000 0.000000 0
0.000000 0.000000 0
0.000000 0.000000 0
0.000000 0.000000 0
0.000000 0.000000 0
0.000000 0.000000 0
0.000000 0.000000 0
0.000000 0.000000 0
0.000000 0.000000 0
0.000000 0.000000 0
0.000000 0.000000 0
0.000000 0.000000 0
0.000000 0.000000 0
0.000000 0.000000 0
0.000000 0.000000 0
0.000000 0.000000 0
-0.000000 0.000000 0
-0.000000 0.000000 0
-0.000000 0.000000 0
0.000000 0.000000 0
0.000000 0.000000 0
0.000000 0.000000 0
0.000000 0.000000 0
0.000000 0.000000 0
0.000000 0.000000 0
0.000000 0.000000 0
0.000000 0.000000 0
0.000000 0.000000 0
0.000000 -0.000188 0
0.000000 0.000000 0
-0.002136 0.001757 0
-0.008369 0.003962 0
-0.016812 0.005084 0
-0.026024 0.005431 0
-0.035303 0.005464 0
-0.044433 0.005450 0
-0.053425 0.005488 0
-0.062357 0.005600 0
-0.071300 0.005771 0
-0.080284 0.005968 0
-0.089270 0.006140 0
-0.098136 0.006223 0
-0.106660 0.006141 0
-0.114527 0.005830 0
-0.121365 0.005254 0
-0.126805 0.004415 0
-0.130534 0.003342 0
-0.132315 0.002087 0
-0.132004 0.000731 0
-0.129571 -0.000655 0
-0.125127 -0.002029 0
-0.118865 -0.003329 0
-0.111027 -0.004491 0
-0.101858 -0.005507 0
-0.091563 -0.006379 0
-0.080339 -0.007083 0
-0.068431 -0.007588 0
-0.056093 -0.007905 0
-0.043546 -0.008118 0
-0.030848 -0.008226 0
-0.018201 -0.008160 0
-0.005754 -0.007995 0
0.006294 -0.007768 0
0.017841 -0.007439 0
0.028821 -0.007022 0
0.039182 -0.006560 0
0.048897 -0.006088 0
0.057951 -0.005615 0
0.066338 -0.005146 0
0.074066 -0.004687 0
0.081146 -0.004243 0
0.087597 -0.003818 0
0.093444 -0.003415 0
0.098715 -0.003037 0
0.103443 -0.002685 0
0.107661 -0.002360 0
0.111404 -0.002061 0
0.114708 -0.001790 0
0.117609 -0.001545 0
0.120142 -0.001325 0
0.122342 -0.001129 0
0.124242 -0.000955 0
0.125872 -0.000802 0
0.127263 -0.000668 0
0.128442 -0.000552 0
0.129434 -0.000452 0
0.130265 -0.000366 0
0.130954 -0.000293 0
0.131523 -0.000233 0
0.131988 -0.000182 0
0.132366 -0.000140 0
0.132671 -0.000107 0
0.132915 -0.000080 0
0.133111 -0.000060 0
0.133267 -0.000044 0
0.133392 -0.000033 0
0.133494 -0.000026 0
0.133579 -0.000022 0
0.133652 -0.000020 0
0.133718 -0.000020 0
0.133780 -0.000023 0
0.133842 -0.000026 0
0.133906 -0.000030 0
0.133974 -0.000035 0
0.134047 -0.000041 0
0.134127 -0.000046 0
0.134213 -0.000052 0
0.134306 -0.000057 0
0.134406 -0.000061 0
0.134512 -0.000065 0
0.134622 -0.000067 0
0.134734 -0.000068 0
0.134848 -0.000067 0
0.134958 -0.000064 0
0.135062 -0.000058 0
0.135154 -0.000048 0
0.135229 -0.000035 0
0.135281 -0.000020 0
0.135305 -0.000006 0
0.135305 0.000000 0
0.000000 0.000000 0
0.000000 0.000000 0
0.000000 0.000000 0
0.000000 0.000000 0
0.000000 0.000000 0
0.000000 0.000000 0
0.000000 0.000000 0
0.000000 0.000000 0
0.000000 0.000000 0
0.000000 -0.002138 0
0.000000 0.000001 0
-0.005612 0.008371 0
-0.017548 0.014675 0
-0.032200 0.017651 0
-0.047499 0.018487 0
-0.062512 0.018409 0
-0.076946 0.018125 0
-0.090791 0.017926 0
-0.104122 0.017875 0
-0.116995 0.017926 0
-0.129403 0.017969 0
-0.141247 0.017853 0
-0.152306 0.017391 0
-0.162232 0.016391 0
-0.170558 0.014705 0
-0.176756 0.012277 0
-0.180334 0.009168 0
-0.180944 0.005511 0
-0.178346 0.001470 0
-0.172709 -0.002745 0
-0.164263 -0.006877 0
-0.153349 -0.010706 0
-0.140332 -0.014099 0
-0.125591 -0.017007 0
-0.109475 -0.019464 0
-0.092256 -0.021519 0
-0.074172 -0.023132 0
-0.055500 -0.024246 0
-0.036483 -0.024885 0
-0.017307 -0.025245 0
0.001660 -0.025345 0
0.020288 -0.025094 0
0.038473 -0.024495 0
0.056025 -0.023595 0
0.072850 -0.022527 0
0.088892 -0.021342 0
0.104113 -0.020077 0
0.118473 -0.018768 0
0.131947 -0.017441 0
0.144524 -0.016115 0
0.156205 -0.014807 0
0.167003 -0.013531 0
0.176937 -0.012298 0
0.186034 -0.011119 0
0.194324 -0.009999 0
0.201846 -0.008945 0
0.208638 -0.007961 0
0.214744 -0.007047 0
0.220206 -0.006205 0
0.225070 -0.005435 0
0.229381 -0.004733 0
0.233183 -0.004099 0
0.236520 -0.003530 0
0.239434 -0.003021 0
0.241966 -0.002570 0
0.244155 -0.002172 0
0.246037 -0.001823 0
0.247647 -0.001520 0
0.249017 -0.001258 0
0.250176 -0.001034 0
0.251152 -0.000843 0
0.251969 -0.000683 0
0.252651 -0.000550 0
0.253218 -0.000440 0
0.253688 -0.000352 0
0.254078 -0.000282 0
0.254401 -0.000227 0
0.254672 -0.000187 0
0.254900 -0.000158 0
0.255097 -0.000139 0
0.255269 -0.000128 0
0.255425 -0.000124 0
0.255571 -0.000126 0
0.255711 -0.000132 0
0.255849 -0.000141 0
0.255989 -0.000153 0
0.256134 -0.000166 0
0.256284 -0.000179 0
0.256442 -0.000193 0
0.256606 -0.000205 0
0.256778 -0.000216 0
0.256955 -0.000223 0
0.257137 -0.000226 0
0.257318 -0.000223 0
0.257497 -0.000214 0
0.257666 -0.000196 0
0.257820 -0.000167 0
0.257949 -0.000127 0
0.258043 -0.000076 0
0.258092 -0.000024 0
0.258092 0.000000 0
0.000000 0.000000 0
0.000000 0.000000 0
0.000000 0.000000 0
0.000000 0.000000 0
0.000000 0.000000 0
0.000000 0.000000 0
0.000000 0.000000 0
0.000000 0.000000 0
0.000000 0.000000 0
0.000000 -0.005802 0
0.000000 0.000001 0
-0.008595 0.019307 0
-0.024779 0.030547 0
-0.043144 0.035032 0
-0.061258 0.035744 0
-0.078234 0.034916 0
-0.093866 0.033731 0
-0.108196 0.032664 0
-0.121312 0.031802 0
-0.133257 0.031051 0
-0.143995 0.030220 0
-0.153407 0.029044 0
-0.161244 0.027208 0
-0.167136 0.024393 0
-0.170565 0.020354 0
-0.170935 0.015030 0
-0.167719 0.008603 0
-0.160668 0.001354 0
-0.150445 -0.006148 0
-0.137620 -0.013353 0
-0.122548 -0.020015 0
-0.105660 -0.025960 0
-0.087253 -0.031086 0
-0.067660 -0.035348 0
-0.047141 -0.038842 0
-0.026016 -0.041683 0
-0.004620 -0.043838 0
0.016876 -0.045276 0
0.038336 -0.046098 0
0.059624 -0.046261 0
0.080424 -0.045821 0
0.100644 -0.044972 0
0.120193 -0.043733 0
0.139056 -0.042146 0
0.157167 -0.040305 0
0.174463 -0.038285 0
0.190903 -0.036142 0
0.206454 -0.033922 0
0.221099 -0.031666 0
0.234828 -0.029405 0
0.247645 -0.027167 0
0.259560 -0.024975 0
0.270594 -0.022848 0
0.280769 -0.020802 0
0.290116 -0.018849 0
0.298669 -0.016999 0
0.306463 -0.015257 0
0.313537 -0.013629 0
0.319933 -0.012117 0
0.325691 -0.010720 0
0.330855 -0.009438 0
0.335465 -0.008268 0
0.339565 -0.007206 0
0.343196 -0.006248 0
0.346396 -0.005389 0
0.349205 -0.004623 0
0.351660 -0.003944 0
0.353796 -0.003346 0
0.355646 -0.002822 0
0.357241 -0.002368 0
0.358611 -0.001975 0
0.359783 -0.001640 0
0.360781 -0.001356 0
0.361630 -0.001117 0
0.362349 -0.000919 0
0.362957 -0.000757 0
0.363473 -0.000627 0
0.363910 -0.000525 0
0.364284 -0.000447 0
0.364605 -0.000389 0
0.364885 -0.000349 0
0.365133 -0.000324 0
0.365357 -0.000311 0
0.365563 -0.000309 0
0.365759 -0.000314 0
0.365948 -0.000325 0
0.366135 -0.000341 0
0.366323 -0.000359 0
0.366513 -0.000379 0
0.366708 -0.000398 0
0.366908 -0.000414 0
0.367112 -0.000426 0
0.367320 -0.000431 0
0.367529 -0.000428 0
0.367735 -0.000412 0
0.367933 -0.000381 0
0.368116 -0.000331 0
0.368274 -0.000258 0
0.368395 -0.000163 0
0.368461 -0.000055 0
0.368461 0.000000 0
0.000000 0.000000 0
0.000000 0.000000 0
0.000000 0.000000 0
0.000000 0.000000 0
0.000000 0.000000 0
0.000000 0.000000 0
0.000000 0.000000 0
0.000000 0.000000 0
0.000000 0.000000 0
0.000000 -0.010735 0
0.000000 0.000002 0
-0.010682 0.033152 0
-0.028994 0.049219 0
-0.048091 0.054129 0
-0.065512 0.053581 0
-0.080660 0.051022 0
-0.093562 0.048088 0
-0.104392 0.045370 0
-0.113300 0.042934 0
-0.120317 0.040607 0
-0.125374 0.038120 0
-0.128360 0.035102 0
-0.128989 0.031119 0
-0.126897 0.025712 0
-0.121578 0.018504 0
-0.112286 0.009432 0
-0.099180 -0.001099 0
-0.083325 -0.011763 0
-0.065592 -0.021578 0
-0.046366 -0.030641 0
-0.026130 -0.038837 0
-0.005125 -0.046001 0
0.016456 -0.052099 0
0.038449 -0.057118 0
0.060698 -0.061108 0
0.082964 -0.064041 0
0.105001 -0.066023 0
0.126692 -0.067201 0
0.147941 -0.067633 0
0.168621 -0.067333 0
0.188746 -0.066366 0
0.208214 -0.064863 0
0.226952 -0.062907 0
0.244934 -0.060569 0
0.262131 -0.057933 0
0.278511 -0.055077 0
0.294050 -0.052068 0
0.308735 -0.048964 0
0.322558 -0.045815 0
0.335522 -0.042661 0
0.347636 -0.039540 0
0.358916 -0.036480 0
0.369384 -0.033507 0
0.379064 -0.030641 0
0.387986 -0.027899 0
0.396180 -0.025291 0
0.403682 -0.022829 0
0.410525 -0.020517 0
0.416747 -0.018359 0
0.422383 -0.016357 0
0.427471 -0.014508 0
0.432048 -0.012810 0
0.436150 -0.011260 0
0.439812 -0.009852 0
0.443069 -0.008579 0
0.445955 -0.007436 0
0.448502 -0.006414 0
0.450741 -0.005505 0
0.452701 -0.004703 0
0.454410 -0.003999 0
0.455895 -0.003385 0
0.457179 -0.002853 0
0.458287 -0.002397 0
0.459238 -0.002007 0
0.460053 -0.001679 0
0.460749 -0.001406 0
0.461343 -0.001180 0
0.461850 -0.000998 0
0.462283 -0.000852 0
0.462655 -0.000740 0
0.462976 -0.000656 0
0.463256 -0.000596 0
0.463503 -0.000557 0
0.463726 -0.000534 0
0.463929 -0.000526 0
0.464120 -0.000529 0
0.464303 -0.000540 0
0.464481 -0.000558 0
0.464657 -0.000578 0
0.464835 -0.000600 0
0.465015 -0.000619 0
0.465198 -0.000635 0
0.465385 -0.000642 0
0.465574 -0.000638 0
0.465762 -0.000618 0
0.465947 -0.000577 0
0.466121 -0.000508 0
0.466277 -0.000406 0
0.466400 -0.000263 0
0.466472 -0.000091 0
0.466472 -0.000000 0
0.000000 0.000000 0
0.000000 0.000000 0
0.000000 0.000000 0
0.000000 0.000000 0
0.000000 0.000000 0
0.000000 0.000000 0
0.000000 0.000000 0
0.000000 0.000000 0
0.000000 0.000000 0
0.000000 -0.016485 0
0.000000 0.000002 0
-0.012115 0.048300 0
-0.030128 0.067951 0
-0.046484 0.071550 0
-0.059389 0.068317 0
-0.068894 0.062968 0
-0.075381 0.057463 0
-0.079179 0.052399 0
-0.080521 0.047725 0
-0.079407 0.043126 0
-0.075648 0.038264 0
-0.069117 0.032659 0
-0.059414 0.025745 0
-0.045794 0.016981 0
-0.028281 0.005743 0
-0.008067 -0.007368 0
0.013691 -0.020358 0
0.035985 -0.032234 0
0.058720 -0.043107 0
0.081756 -0.052814 0
0.104765 -0.061256 0
0.127648 -0.068546 0
0.150271 -0.074661 0
0.172585 -0.079589 0
0.194486 -0.083357 0
0.215909 -0.085986 0
0.236827 -0.087566 0
0.257146 -0.088217 0
0.276795 -0.088027 0
0.295715 -0.087066 0
0.313912 -0.085415 0
0.331358 -0.083179 0
0.348025 -0.080453 0
0.363902 -0.077325 0
0.378981 -0.073882 0
0.393257 -0.070205 0
0.406729 -0.066366 0
0.419399 -0.062430 0
0.431276 -0.058453 0
0.442374 -0.054483 0
0.452709 -0.050561 0
0.462304 -0.046723 0
0.471185 -0.042996 0
0.479379 -0.039404 0
0.486916 -0.035966 0
0.493828 -0.032695 0
0.500147 -0.029602 0
0.505906 -0.026694 0
0.511139 -0.023975 0
0.515877 -0.021445 0
0.520155 -0.019103 0
0.524003 -0.016946 0
0.527452 -0.014970 0
0.530534 -0.013167 0
0.533277 -0.011532 0
0.535709 -0.010056 0
0.537857 -0.008729 0
0.539746 -0.007545 0
0.541400 -0.006492 0
0.542842 -0.005562 0
0.544093 -0.004745 0
0.545174 -0.004032 0
0.546103 -0.003414 0
0.546897 -0.002883 0
0.547573 -0.002430 0
0.548144 -0.002048 0
0.548626 -0.001728 0
0.549029 -0.001465 0
0.549367 -0.001252 0
0.549647 -0.001082 0
0.549881 -0.000950 0
0.550077 -0.000851 0
0.550241 -0.000781 0
0.550381 -0.000735 0
0.550502 -0.000708 0
0.550610 -0.000699 0
0.550709 -0.000702 0
0.550803 -0.000714 0
0.550895 -0.000733 0
0.550988 -0.000755 0
0.551084 -0.000777 0
0.551184 -0.000796 0
0.551289 -0.000807 0
0.551400 -0.000805 0
0.551516 -0.000785 0
0.551636 -0.000740 0
0.551755 -0.000661 0
0.551867 -0.000537 0
0.551962 -0.000358 0
0.552022 -0.000126 0
0.552022 -0.000000 0
0.000000 0.000000 0
0.000000 0.000000 0
0.000000 0.000000 0
0.000000 0.000000 0
0.000000 0.000000 0
0.000000 0.000000 0
0.000000 0.000000 0
0.000000 0.000000 0
0.000000 0.000000 0
0.000000 -0.022851 0
0.000000 0.000001 0
-0.013428 0.063276 0
-0.027953 0.083585 0
-0.036977 0.083392 0
-0.040714 0.075995 0
-0.040367 0.067015 0
-0.036668 0.058371 0
-0.029889 0.050507 0
-0.020311 0.043161 0
-0.007906 0.035734 0
0.007740 0.027831 0
0.027223 0.018869 0
0.050265 0.007796 0
0.076028 -0.005422 0
0.103331 -0.019223 0
0.130562 -0.032540 0
0.156922 -0.045151 0
0.182570 -0.056793 0
0.207523 -0.067349 0
0.231698 -0.076686 0
0.255169 -0.084728 0
0.277891 -0.091507 0
0.299815 -0.097037 0
0.320929 -0.101334 0
0.341218 -0.104432 0
0.360687 -0.106381 0
0.379354 -0.107261 0
0.397210 -0.107169 0
0.414242 -0.106202 0
0.430446 -0.104451 0
0.445835 -0.102009 0
0.460418 -0.098976 0
0.474204 -0.095450 0
0.487204 -0.091525 0
0.499431 -0.087289 0
0.510901 -0.082825 0
0.521628 -0.078211 0
0.531630 -0.073512 0
0.540928 -0.068789 0
0.549544 -0.064094 0
0.557503 -0.059470 0
0.564832 -0.054956 0
0.571559 -0.050582 0
0.577714 -0.046372 0
0.583327 -0.042348 0
0.588429 -0.038523 0
0.593051 -0.034907 0
0.597224 -0.031509 0
0.600979 -0.028330 0
0.604343 -0.025372 0
0.607348 -0.022633 0
0.610019 -0.020108 0
0.612384 -0.017792 0
0.614467 -0.015676 0
0.616294 -0.013754 0
0.617887 -0.012015 0
0.619267 -0.010450 0
0.620455 -0.009048 0
0.621470 -0.007800 0
0.622330 -0.006693 0
0.623050 -0.005717 0
0.623647 -0.004863 0
0.624134 -0.004120 0
0.624525 -0.003477 0
0.624831 -0.002927 0
0.625064 -0.002459 0
0.625233 -0.002065 0
0.625347 -0.001738 0
0.625416 -0.001470 0
0.625446 -0.001255 0
0.625444 -0.001085 0
0.625418 -0.000956 0
0.625371 -0.000861 0
0.625310 -0.000796 0
0.625238 -0.000756 0
0.625160 -0.000736 0
0.625080 -0.000733 0
0.624999 -0.000744 0
0.624921 -0.000763 0
0.624849 -0.000788 0
0.624784 -0.000815 0
0.624728 -0.000840 0
0.624684 -0.000859 0
0.624652 -0.000866 0
0.624635 -0.000854 0
0.624631 -0.000816 0
0.624642 -0.000740 0
0.624666 -0.000613 0
0.624696 -0.000418 0
0.624722 -0.000151 0
0.624722 -0.000000 0
0.000000 0.000000 0
0.000000 0.000000 0
0.000000 0.000000 0
0.000000 0.000000 0
0.000000 0.000000 0
0.000000 0.000000 0
0.000000 0.000000 0
0.000000 0.000000 0
0.000000 0.000000 0
0.000000 -0.029913 0
0.000000 -0.000000 0
-0.014126 0.076248 0
-0.018888 0.091499 0
-0.013195 0.084316 0
-0.001260 0.071712 0
0.014147 0.058923 0
0.032373 0.046983 0
0.053492 0.036039 0
0.077900 0.025742 0
0.105411 0.015076 0
0.135335 0.003136 0
0.167075 -0.009866 0
0.199763 -0.023061 0
0.231963 -0.036086 0
0.262688 -0.048791 0
0.291922 -0.060958 0
0.319603 -0.072366 0
0.345776 -0.082835 0
0.370502 -0.092235 0
0.393827 -0.100460 0
0.415853 -0.107450 0
0.436644 -0.113192 0
0.456247 -0.117698 0
0.474712 -0.120992 0
0.492088 -0.123115 0
0.508431 -0.124122 0
0.523794 -0.124089 0
0.538220 -0.123105 0
0.551746 -0.121263 0
0.564406 -0.118658 0
0.576237 -0.115387 0
0.587275 -0.111548 0
0.597551 -0.107238 0
0.607098 -0.102552 0
0.615945 -0.097579 0
0.624122 -0.092401 0
0.631657 -0.087095 0
0.638577 -0.081730 0
0.644911 -0.076367 0
0.650687 -0.071058 0
0.655933 -0.065849 0
0.660680 -0.060778 0
0.664955 -0.055877 0
0.668788 -0.051172 0
0.672208 -0.046681 0
0.675244 -0.042419 0
0.677922 -0.038398 0
0.680271 -0.034622 0
0.682316 -0.031094 0
0.684082 -0.027814 0
0.685593 -0.024778 0
0.686873 -0.021982 0
0.687942 -0.019418 0
0.688822 -0.017078 0
0.689530 -0.014952 0
0.690086 -0.013029 0
0.690504 -0.011298 0
0.690802 -0.009748 0
0.690992 -0.008366 0
0.691089 -0.007141 0
0.691103 -0.006062 0
0.691046 -0.005116 0
0.690928 -0.004292 0
0.690757 -0.003580 0
0.690541 -0.002969 0
0.690288 -0.002449 0
0.690005 -0.002012 0
0.689697 -0.001648 0
0.689370 -0.001350 0
0.689029 -0.001110 0
0.688677 -0.000922 0
0.688320 -0.000778 0
0.687960 -0.000673 0
0.687600 -0.000602 0
0.687243 -0.000559 0
0.686892 -0.000540 0
0.686549 -0.000540 0
0.686215 -0.000556 0
0.685893 -0.000583 0
0.685585 -0.000618 0
0.685292 -0.000657 0
0.685017 -0.000696 0
0.684762 -0.000731 0
0.684530 -0.000755 0
0.684322 -0.000764 0
0.684144 -0.000748 0
0.683999 -0.000695 0
0.683890 -0.000591 0
0.683822 -0.000414 0
0.683793 -0.000152 0
0.683793 -0.000000 0
0.000000 0.000000 0
0.000000 0.000000 0
0.000000 0.000000 0
0.000000 0.000000 0
0.000000 0.000000 0
0.000000 0.000000 0
0.000000 0.000000 0
0.000000 0.000000 0
0.000000 0.000000 0
0.000000 -0.036974 0
0.000000 -0.000001 0
-0.005584 0.082158 0
0.015003 0.082655 0
0.046234 0.065770 0
0.080946 0.048657 0
0.117781 0.033382 0
0.155654 0.019023 0
0.193929 0.004978 0
0.232464 -0.008757 0
0.270988 -0.021698 0
0.308820 -0.033833 0
0.344980 -0.045560 0
0.379103 -0.057092 0
0.411149 -0.068347 0
0.441076 -0.079183 0
0.468886 -0.089455 0
0.494634 -0.099005 0
0.518412 -0.107692 0
0.540328 -0.115399 0
0.560499 -0.122037 0
0.579052 -0.127545 0
0.596107 -0.131901 0
0.611770 -0.135104 0
0.626142 -0.137175 0
0.639316 -0.138152 0
0.651382 -0.138087 0
0.662423 -0.137050 0
0.672516 -0.135121 0
0.681727 -0.132388 0
0.690118 -0.128942 0
0.697746 -0.124878 0
0.704663 -0.120290 0
0.710920 -0.115274 0
0.716561 -0.109919 0
0.721626 -0.104313 0
0.726155 -0.098537 0
0.730184 -0.092665 0
0.733746 -0.086766 0
0.736874 -0.080899 0
0.739598 -0.075116 0
0.741947 -0.069463 0
0.743950 -0.063978 0
0.745634 -0.058690 0
0.747024 -0.053626 0
0.748146 -0.048803 0
0.749024 -0.044236 0
0.749680 -0.039934 0
0.750136 -0.035902 0
0.750412 -0.032142 0
0.750526 -0.028650 0
0.750497 -0.025424 0
0.750342 -0.022457 0
0.750075 -0.019740 0
0.749711 -0.017264 0
0.749263 -0.015018 0
0.748744 -0.012989 0
0.748163 -0.011167 0
0.747532 -0.009536 0
0.746859 -0.008086 0
0.746153 -0.006803 0
0.745420 -0.005674 0
0.744667 -0.004687 0
0.743900 -0.003830 0
0.743123 -0.003091 0
0.742341 -0.002458 0
0.741557 -0.001923 0
0.740775 -0.001474 0
0.739998 -0.001103 0
0.739230 -0.000802 0
0.738473 -0.000562 0
0.737728 -0.000376 0
0.736997 -0.000238 0
0.736281 -0.000141 0
0.735582 -0.000079 0
0.734899 -0.000048 0
0.734234 -0.000042 0
0.733589 -0.000056 0
0.732964 -0.000088 0
0.732361 -0.000133 0
0.731782 -0.000187 0
0.731227 -0.000247 0
0.730699 -0.000310 0
0.730202 -0.000371 0
0.729738 -0.000426 0
0.729312 -0.000469 0
0.728931 -0.000492 0
0.728603 -0.000486 0
0.728338 -0.000436 0
0.728148 -0.000320 0
0.728050 -0.000122 0
0.728050 -0.000000 0
-0.500000 0.000000 0
-0.471736 0.000000 0
-0.430282 0.000000 0
-0.388979 0.000000 0
-0.352211 0.000000 0
-0.321419 0.000000 0
-0.297013 0.000000 0
-0.279219 0.000000 0
-0.268984 0.000000 0
-0.270287 -0.035492 0
0.000000 -0.000000 0
0.064702 0.061241 0
0.134845 0.039685 0
0.198333 0.018380 0
0.255288 0.000168 0
0.307500 -0.015787 0
0.355876 -0.029169 0
0.400735 -0.040771 0
0.441998 -0.051315 0
0.479907 -0.061278 0
0.514925 -0.070854 0
0.547350 -0.080150 0
0.577252 -0.089231 0
0.604685 -0.098058 0
0.629730 -0.106528 0
0.652479 -0.114516 0
0.673041 -0.121892 0
0.691541 -0.128529 0
0.708113 -0.134322 0
0.722898 -0.139184 0
0.736037 -0.143058 0
0.747668 -0.145910 0
0.757920 -0.147733 0
0.766916 -0.148537 0
0.774768 -0.148354 0
0.781583 -0.147229 0
0.787460 -0.145224 0
0.792488 -0.142409 0
0.796751 -0.138865 0
0.800322 -0.134676 0
0.803270 -0.129932 0
0.805658 -0.124723 0
0.807542 -0.119136 0
0.808976 -0.113258 0
0.810005 -0.107174 0
0.810674 -0.100959 0
0.811022 -0.094686 0
0.811084 -0.088420 0