# vtk DataFile Version 2.0
generated by CFD-lab course output (written by Tobias Neckel) 
ASCII

DATASET STRUCTURED_GRID
DIMENSIONS  101 21 1 
POINTS 2121 float

0.000000 0.000000 0
0.100000 0.000000 0
0.200000 0.000000 0
0.300000 0.000000 0
0.400000 0.000000 0
0.500000 0.000000 0
0.600000 0.000000 0
0.700000 0.000000 0
0.800000 0.000000 0
0.900000 0.000000 0
1.000000 0.000000 0
1.100000 0.000000 0
1.200000 0.000000 0
1.300000 0.000000 0
1.400000 0.000000 0
1.500000 0.000000 0
1.600000 0.000000 0
1.700000 0.000000 0
1.800000 0.000000 0
1.900000 0.000000 0
2.000000 0.000000 0
2.100000 0.000000 0
2.200000 0.000000 0
2.300000 0.000000 0
2.400000 0.000000 0
2.500000 0.000000 0
2.600000 0.000000 0
2.700000 0.000000 0
2.800000 0.000000 0
2.900000 0.000000 0
3.000000 0.000000 0
3.100000 0.000000 0
3.200000 0.000000 0
3.300000 0.000000 0
3.400000 0.000000 0
3.500000 0.000000 0
3.600000 0.000000 0
3.700000 0.000000 0
3.800000 0.000000 0
3.900000 0.000000 0
4.000000 0.000000 0
4.100000 0.000000 0
4.200000 0.000000 0
4.300000 0.000000 0
4.400000 0.000000 0
4.500000 0.000000 0
4.600000 0.000000 0
4.700000 0.000000 0
4.800000 0.000000 0
4.900000 0.000000 0
5.000000 0.000000 0
5.100000 0.000000 0
5.200000 0.000000 0
5.300000 0.000000 0
5.400000 0.000000 0
5.500000 0.000000 0
5.600000 0.000000 0
5.700000 0.000000 0
5.800000 0.000000 0
5.900000 0.000000 0
6.000000 0.000000 0
6.100000 0.000000 0
6.200000 0.000000 0
6.300000 0.000000 0
6.400000 0.000000 0
6.500000 0.000000 0
6.600000 0.000000 0
6.700000 0.000000 0
6.800000 0.000000 0
6.900000 0.000000 0
7.000000 0.000000 0
7.100000 0.000000 0
7.200000 0.000000 0
7.300000 0.000000 0
7.400000 0.000000 0
7.500000 0.000000 0
7.600000 0.000000 0
7.700000 0.000000 0
7.800000 0.000000 0
7.900000 0.000000 0
8.000000 0.000000 0
8.100000 0.000000 0
8.200000 0.000000 0
8.300000 0.000000 0
8.400000 0.000000 0
8.500000 0.000000 0
8.600000 0.000000 0
8.700000 0.000000 0
8.800000 0.000000 0
8.900000 0.000000 0
9.000000 0.000000 0
9.100000 0.000000 0
9.200000 0.000000 0
9.300000 0.000000 0
9.400000 0.000000 0
9.500000 0.000000 0
9.600000 0.000000 0
9.700000 0.000000 0
9.800000 0.000000 0
9.900000 0.000000 0
10.000000 0.000000 0
0.000000 0.100000 0
0.100000 0.100000 0
0.200000 0.100000 0
0.300000 0.100000 0
0.400000 0.100000 0
0.500000 0.100000 0
0.600000 0.100000 0
0.700000 0.100000 0
0.800000 0.100000 0
0.900000 0.100000 0
1.000000 0.100000 0
1.100000 0.100000 0
1.200000 0.100000 0
1.300000 0.100000 0
1.400000 0.100000 0
1.500000 0.100000 0
1.600000 0.100000 0
1.700000 0.100000 0
1.800000 0.100000 0
1.900000 0.100000 0
2.000000 0.100000 0
2.100000 0.100000 0
2.200000 0.100000 0
2.300000 0.100000 0
2.400000 0.100000 0
2.500000 0.100000 0
2.600000 0.100000 0
2.700000 0.100000 0
2.800000 0.100000 0
2.900000 0.100000 0
3.000000 0.100000 0
3.100000 0.100000 0
3.200000 0.100000 0
3.300000 0.100000 0
3.400000 0.100000 0
3.500000 0.100000 0
3.600000 0.100000 0
3.700000 0.100000 0
3.800000 0.100000 0
3.900000 0.100000 0
4.000000 0.100000 0
4.100000 0.100000 0
4.200000 0.100000 0
4.300000 0.100000 0
4.400000 0.100000 0
4.500000 0.100000 0
4.600000 0.100000 0
4.700000 0.100000 0
4.800000 0.100000 0
4.900000 0.100000 0
5.000000 0.100000 0
5.100000 0.100000 0
5.200000 0.100000 0
5.300000 0.100000 0
5.400000 0.100000 0
5.500000 0.100000 0
5.600000 0.100000 0
5.700000 0.100000 0
5.800000 0.100000 0
5.900000 0.100000 0
6.000000 0.100000 0
6.100000 0.100000 0
6.200000 0.100000 0
6.300000 0.100000 0
6.400000 0.100000 0
6.500000 0.100000 0
6.600000 0.100000 0
6.700000 0.100000 0
6.800000 0.100000 0
6.900000 0.100000 0
7.000000 0.100000 0
7.100000 0.100000 0
7.200000 0.100000 0
7.300000 0.100000 0
7.400000 0.100000 0
7.500000 0.100000 0
7.600000 0.100000 0
7.700000 0.100000 0
7.800000 0.100000 0
7.900000 0.100000 0
8.000000 0.100000 0
8.100000 0.100000 0
8.200000 0.100000 0
8.300000 0.100000 0
8.400000 0.100000 0
8.500000 0.100000 0
8.600000 0.100000 0
8.700000 0.100000 0
8.800000 0.100000 0
8.900000 0.100000 0
9.000000 0.100000 0
9.100000 0.100000 0
9.200000 0.100000 0
9.300000 0.100000 0
9.400000 0.100000 0
9.500000 0.100000 0
9.600000 0.100000 0
9.700000 0.100000 0
9.800000 0.100000 0
9.900000 0.100000 0
10.000000 0.100000 0
0.000000 0.200000 0
0.100000 0.200000 0
0.200000 0.200000 0
0.300000 0.200000 0
0.400000 0.200000 0
0.500000 0.200000 0
0.600000 0.200000 0
0.700000 0.200000 0
0.800000 0.200000 0
0.900000 0.200000 0
1.000000 0.200000 0
1.100000 0.200000 0
1.200000 0.200000 0
1.300000 0.200000 0
1.400000 0.200000 0
1.500000 0.200000 0
1.600000 0.200000 0
1.700000 0.200000 0
1.800000 0.200000 0
1.900000 0.200000 0
2.000000 0.200000 0
2.100000 0.200000 0
2.200000 0.200000 0
2.300000 0.200000 0
2.400000 0.200000 0
2.500000 0.200000 0
2.600000 0.200000 0
2.700000 0.200000 0
2.800000 0.200000 0
2.900000 0.200000 0
3.000000 0.200000 0
3.100000 0.200000 0
3.200000 0.200000 0
3.300000 0.200000 0
3.400000 0.200000 0
3.500000 0.200000 0
3.600000 0.200000 0
3.700000 0.200000 0
3.800000 0.200000 0
3.900000 0.200000 0
4.000000 0.200000 0
4.100000 0.200000 0
4.200000 0.200000 0
4.300000 0.200000 0
4.400000 0.200000 0
4.500000 0.200000 0
4.600000 0.200000 0
4.700000 0.200000 0
4.800000 0.200000 0
4.900000 0.200000 0
5.000000 0.200000 0
5.100000 0.200000 0
5.200000 0.200000 0
5.300000 0.200000 0
5.400000 0.200000 0
5.500000 0.200000 0
5.600000 0.200000 0
5.700000 0.200000 0
5.800000 0.200000 0
5.900000 0.200000 0
6.000000 0.200000 0
6.100000 0.200000 0
6.200000 0.200000 0
6.300000 0.200000 0
6.400000 0.200000 0
6.500000 0.200000 0
6.600000 0.200000 0
6.700000 0.200000 0
6.800000 0.200000 0
6.900000 0.200000 0
7.000000 0.200000 0
7.100000 0.200000 0
7.200000 0.200000 0
7.300000 0.200000 0
7.400000 0.200000 0
7.500000 0.200000 0
7.600000 0.200000 0
7.700000 0.200000 0
7.800000 0.200000 0
7.900000 0.200000 0
8.000000 0.200000 0
8.100000 0.200000 0
8.200000 0.200000 0
8.300000 0.200000 0
8.400000 0.200000 0
8.500000 0.200000 0
8.600000 0.200000 0
8.700000 0.200000 0
8.800000 0.200000 0
8.900000 0.200000 0
9.000000 0.200000 0
9.100000 0.200000 0
9.200000 0.200000 0
9.300000 0.200000 0
9.400000 0.200000 0
9.500000 0.200000 0
9.600000 0.200000 0
9.700000 0.200000 0
9.800000 0.200000 0
9.900000 0.200000 0
10.000000 0.200000 0
0.000000 0.300000 0
0.100000 0.300000 0
0.200000 0.300000 0
0.300000 0.300000 0
0.400000 0.300000 0
0.500000 0.300000 0
0.600000 0.300000 0
0.700000 0.300000 0
0.800000 0.300000 0
0.900000 0.300000 0
1.000000 0.300000 0
1.100000 0.300000 0
1.200000 0.300000 0
1.300000 0.300000 0
1.400000 0.300000 0
1.500000 0.300000 0
1.600000 0.300000 0
1.700000 0.300000 0
1.800000 0.300000 0
1.900000 0.300000 0
2.000000 0.300000 0
2.100000 0.300000 0
2.200000 0.300000 0
2.300000 0.300000 0
2.400000 0.300000 0
2.500000 0.300000 0
2.600000 0.300000 0
2.700000 0.300000 0
2.800000 0.300000 0
2.900000 0.300000 0
3.000000 0.300000 0
3.100000 0.300000 0
3.200000 0.300000 0
3.300000 0.300000 0
3.400000 0.300000 0
3.500000 0.300000 0
3.600000 0.300000 0
3.700000 0.300000 0
3.800000 0.300000 0
3.900000 0.300000 0
4.000000 0.300000 0
4.100000 0.300000 0
4.200000 0.300000 0
4.300000 0.300000 0
4.400000 0.300000 0
4.500000 0.300000 0
4.600000 0.300000 0
4.700000 0.300000 0
4.800000 0.300000 0
4.900000 0.300000 0
5.000000 0.300000 0
5.100000 0.300000 0
5.200000 0.300000 0
5.300000 0.300000 0
5.400000 0.300000 0
5.500000 0.300000 0
5.600000 0.300000 0
5.700000 0.300000 0
5.800000 0.300000 0
5.900000 0.300000 0
6.000000 0.300000 0
6.100000 0.300000 0
6.200000 0.300000 0
6.300000 0.300000 0
6.400000 0.300000 0
6.500000 0.300000 0
6.600000 0.300000 0
6.700000 0.300000 0
6.800000 0.300000 0
6.900000 0.300000 0
7.000000 0.300000 0
7.100000 0.300000 0
7.200000 0.300000 0
7.300000 0.300000 0
7.400000 0.300000 0
7.500000 0.300000 0
7.600000 0.300000 0
7.700000 0.300000 0
7.800000 0.300000 0
7.900000 0.300000 0
8.000000 0.300000 0
8.100000 0.300000 0
8.200000 0.300000 0
8.300000 0.300000 0
8.400000 0.300000 0
8.500000 0.300000 0
8.600000 0.300000 0
8.700000 0.300000 0
8.800000 0.300000 0
8.900000 0.300000 0
9.000000 0.300000 0
9.100000 0.300000 0
9.200000 0.300000 0
9.300000 0.300000 0
9.400000 0.300000 0
9.500000 0.300000 0
9.600000 0.300000 0
9.700000 0.300000 0
9.800000 0.300000 0
9.900000 0.300000 0
10.000000 0.300000 0
0.000000 0.400000 0
0.100000 0.400000 0
0.200000 0.400000 0
0.300000 0.400000 0
0.400000 0.400000 0
0.500000 0.400000 0
0.600000 0.400000 0
0.700000 0.400000 0
0.800000 0.400000 0
0.900000 0.400000 0
1.000000 0.400000 0
1.100000 0.400000 0
1.200000 0.400000 0
1.300000 0.400000 0
1.400000 0.400000 0
1.500000 0.400000 0
1.600000 0.400000 0
1.700000 0.400000 0
1.800000 0.400000 0
1.900000 0.400000 0
2.000000 0.400000 0
2.100000 0.400000 0
2.200000 0.400000 0
2.300000 0.400000 0
2.400000 0.400000 0
2.500000 0.400000 0
2.600000 0.400000 0
2.700000 0.400000 0
2.800000 0.400000 0
2.900000 0.400000 0
3.000000 0.400000 0
3.100000 0.400000 0
3.200000 0.400000 0
3.300000 0.400000 0
3.400000 0.400000 0
3.500000 0.400000 0
3.600000 0.400000 0
3.700000 0.400000 0
3.800000 0.400000 0
3.900000 0.400000 0
4.000000 0.400000 0
4.100000 0.400000 0
4.200000 0.400000 0
4.300000 0.400000 0
4.400000 0.400000 0
4.500000 0.400000 0
4.600000 0.400000 0
4.700000 0.400000 0
4.800000 0.400000 0
4.900000 0.400000 0
5.000000 0.400000 0
5.100000 0.400000 0
5.200000 0.400000 0
5.300000 0.400000 0
5.400000 0.400000 0
5.500000 0.400000 0
5.600000 0.400000 0
5.700000 0.400000 0
5.800000 0.400000 0
5.900000 0.400000 0
6.000000 0.400000 0
6.100000 0.400000 0
6.200000 0.400000 0
6.300000 0.400000 0
6.400000 0.400000 0
6.500000 0.400000 0
6.600000 0.400000 0
6.700000 0.400000 0
6.800000 0.400000 0
6.900000 0.400000 0
7.000000 0.400000 0
7.100000 0.400000 0
7.200000 0.400000 0
7.300000 0.400000 0
7.400000 0.400000 0
7.500000 0.400000 0
7.600000 0.400000 0
7.700000 0.400000 0
7.800000 0.400000 0
7.900000 0.400000 0
8.000000 0.400000 0
8.100000 0.400000 0
8.200000 0.400000 0
8.300000 0.400000 0
8.400000 0.400000 0
8.500000 0.400000 0
8.600000 0.400000 0
[...]
POINT_DATA 2121 

VECTORS velocity float
0.500000 0.000000 0
0.000001 0.000000 0
-0.000008 0.000000 0
-0.000023 0.000000 0
-0.000044 0.000000 0
-0.000072 0.000000 0
-0.000108 0.000000 0
-0.000145 0.000000 0
-0.000187 0.000000 0
-0.000215 0.000000 0
-0.000225 0.000000 0
-0.000206 0.000000 0
-0.000150 0.000000 0
-0.000041 0.000000 0
0.000113 0.000000 0
0.000341 0.000000 0
0.000607 0.000000 0
0.000891 0.000000 0
0.001159 0.000000 0
0.001375 0.000000 0
0.001506 0.000000 0
0.001524 0.000000 0
0.001411 0.000000 0
0.001155 0.000000 0
0.000755 0.000000 0
0.000218 0.000000 0
-0.000442 0.000000 0
-0.001201 0.000000 0
-0.002026 0.000000 0
-0.002825 0.000000 0
-0.003464 0.000000 0
-0.003798 0.000000 0
-0.003709 0.000000 0
-0.003160 0.000000 0
-0.002232 0.000000 0
-0.001098 0.000000 0
0.000078 0.000000 0
0.001197 0.000000 0
0.002177 0.000000 0
0.002970 0.000000 0
0.003557 0.000000 0
0.003934 0.000000 0
0.004106 0.000000 0
0.004078 0.000000 0
0.003855 0.000000 0
0.003438 0.000000 0
0.002826 0.000000 0
0.002008 0.000000 0
0.000969 0.000000 0
-0.000280 0.000000 0
-0.001622 0.000000 0
-0.002946 0.000000 0
-0.004177 0.000000 0
-0.005232 0.000000 0
-0.006008 0.000000 0
-0.006390 0.000000 0
-0.006258 0.000000 0
-0.005529 0.000000 0
-0.004212 0.000000 0
-0.002472 0.000000 0
-0.000609 0.000000 0
0.001183 0.000000 0
0.002808 0.000000 0
0.004176 0.000000 0
0.005215 0.000000 0
0.005881 0.000000 0
0.006158 0.000000 0
0.006047 0.000000 0
0.005568 0.000000 0
0.004751 0.000000 0
0.003642 0.000000 0
0.002311 0.000000 0
0.000867 0.000000 0
-0.000507 0.000000 0
-0.001628 0.000000 0
-0.002514 0.000000 0
-0.003220 0.000000 0
-0.003797 0.000000 0
-0.004277 0.000000 0
-0.004662 0.000000 0
-0.004919 0.000000 0
-0.004975 0.000000 0
-0.004731 0.000000 0
-0.004093 0.000000 0
-0.003026 0.000000 0
-0.001603 0.000000 0
-0.000004 0.000000 0
0.001646 0.000000 0
0.003269 0.000000 0
0.004761 0.000000 0
0.005994 0.000000 0
0.006839 0.000000 0
0.007171 0.000000 0
0.006917 0.000000 0
0.006096 0.000000 0
0.004847 0.000000 0
0.003402 0.000000 0
0.002032 0.000000 0
0.001010 0.000000 0
0.000443 0.000000 0
0.000210 0.000000 0
1.000000 0.000005 0
1.002546 -0.004628 0
1.010492 -0.010095 0
1.024277 -0.016093 0
1.044385 -0.022433 0
1.071157 -0.028755 0
1.104480 -0.034413 0
1.143386 -0.038507 0
1.185746 -0.040106 0
1.228153 -0.038834 0
1.267437 -0.035170 0
1.301607 -0.029993 0
1.329758 -0.024061 0
1.351623 -0.017831 0
1.367168 -0.011493 0
1.376366 -0.005144 0
1.379195 0.001085 0
1.375792 0.007019 0
1.366519 0.012423 0
1.352035 0.017027 0
1.333299 0.020573 0
1.311527 0.022855 0
1.288111 0.023739 0
1.264536 0.023172 0
1.242296 0.021176 0
1.222816 0.017836 0
1.207396 0.013286 0
1.197176 0.007693 0
1.193088 0.001311 0
1.195733 -0.005281 0
1.205087 -0.011160 0
1.220126 -0.015287 0
1.238639 -0.016756 0
1.257480 -0.015135 0
1.273252 -0.010718 0
1.283185 -0.004443 0
1.285725 0.002632 0
1.280544 0.009700 0
1.268134 0.016161 0
1.249500 0.021610 0
1.225914 0.025829 0
1.198747 0.028729 0
1.169377 0.030296 0
1.139151 0.030544 0
1.109380 0.029492 0
1.081343 0.027145 0
1.056301 0.023478 0
1.035475 0.018429 0
1.020005 0.011922 0
1.010876 0.004069 0
1.008843 -0.004521 0
1.014394 -0.013062 0
1.027645 -0.020979 0
1.048227 -0.027740 0
1.075200 -0.032764 0
1.107045 -0.035424 0
1.141640 -0.035113 0
1.176233 -0.031404 0
1.207534 -0.024340 0
1.232090 -0.014732 0
1.246981 -0.004049 0
1.250662 0.006460 0
1.243430 0.016126 0
1.226501 0.024440 0
1.201589 0.030977 0
1.170744 0.035442 0
1.136208 0.037675 0
1.100282 0.037627 0
1.065214 0.035330 0
1.033099 0.030895 0
1.005735 0.024539 0
0.984459 0.016651 0
0.969985 0.007895 0
0.962363 -0.000632 0
0.961182 -0.007897 0
0.965672 -0.013643 0
0.974976 -0.018128 0
0.988360 -0.021657 0
1.005264 -0.024453 0
1.025279 -0.026591 0
1.048022 -0.027946 0
1.072939 -0.028182 0
1.099084 -0.026814 0
1.124971 -0.023369 0
1.148580 -0.017654 0
1.167534 -0.010027 0
1.179482 -0.001331 0
1.182727 0.007648 0
1.176911 0.016387 0
1.162619 0.024326 0
1.141036 0.030795 0
1.113963 0.035064 0
1.083745 0.036453 0
1.053097 0.034526 0
1.024764 0.029347 0
1.001045 0.021652 0
0.983333 0.012798 0
0.971841 0.004563 0
0.965645 -0.001179 0
0.962983 -0.001154 0
0.959543 0.000662 0
1.000000 0.000006 0
1.002859 -0.010512 0
1.011248 -0.021751 0
1.025558 -0.033913 0
1.046492 -0.046899 0
1.074818 -0.060111 0
1.110965 -0.072237 0
1.154357 -0.081263 0
1.202836 -0.084745 0
1.250861 -0.081654 0
1.293994 -0.073419 0
1.330347 -0.062293 0
1.359685 -0.050004 0
1.382384 -0.037405 0
1.398756 -0.024727 0
1.408784 -0.012009 0
1.412303 0.000584 0
1.409314 0.012681 0
1.400077 0.023759 0
1.385243 0.033218 0
1.365838 0.040501 0
1.343175 0.045179 0
1.318755 0.046978 0
1.294164 0.045800 0
1.270974 0.041704 0
1.250662 0.034883 0
1.234545 0.025623 0
1.223778 0.014293 0
1.219411 0.001431 0
1.222378 -0.012003 0
1.233131 -0.024388 0
1.250977 -0.033539 0
1.273658 -0.037333 0
1.297520 -0.034587 0
1.318274 -0.025678 0
1.332220 -0.012449 0
1.337385 0.002658 0
1.333744 0.017600 0
1.322216 0.031047 0
1.304145 0.042223 0
1.281025 0.050757 0
1.254343 0.056539 0
1.225495 0.059596 0
1.195784 0.059997 0
1.166433 0.057806 0
1.138600 0.053075 0
1.113371 0.045864 0
1.091714 0.036290 0
1.074404 0.024593 0
1.061983 0.011155 0
1.054893 -0.003525 0
1.053763 -0.018809 0
1.059090 -0.033840 0
1.071020 -0.047562 0
1.089340 -0.058822 0
1.113582 -0.066439 0
1.142936 -0.069184 0
1.175947 -0.065887 0
1.210190 -0.055847 0
1.242201 -0.039434 0
1.267805 -0.018559 0
1.283148 0.003562 0
1.286612 0.024171 0
1.279249 0.041847 0
1.262811 0.055760 0
1.239380 0.065381 0
1.211189 0.070461 0
1.180467 0.070991 0
1.149300 0.067179 0
1.119493 0.059476 0
1.092438 0.048635 0
1.069011 0.035746 0
1.049574 0.022092 0
1.034156 0.008799 0
1.022868 -0.003313 0
1.015807 -0.013798 0
1.012797 -0.022692 0
1.013627 -0.030293 0
1.018242 -0.036923 0
1.026805 -0.042761 0
1.039599 -0.047662 0
1.056750 -0.051062 0
1.077944 -0.052031 0
1.102259 -0.049494 0
1.128130 -0.042559 0
1.153367 -0.030897 0
1.175249 -0.015187 0
1.190962 0.002578 0
1.198627 0.020116 0
1.198225 0.035883 0
1.190661 0.048664 0
1.177324 0.057300 0
1.159908 0.060874 0
1.140178 0.058989 0
1.119745 0.052060 0
1.099892 0.041439 0
1.081520 0.029212 0
1.065197 0.017696 0
1.051298 0.008865 0
1.040105 0.006110 0
1.032467 0.006423 0
1.000000 0.000008 0
1.002452 -0.015891 0
1.009996 -0.032801 0
1.023302 -0.051344 0
1.043562 -0.071695 0
1.072379 -0.093224 0
1.111387 -0.113942 0
1.161141 -0.130353 0
1.220528 -0.136580 0
1.277261 -0.129974 0
1.324467 -0.114654 0
1.361503 -0.095697 0
1.390004 -0.076114 0
1.411716 -0.056899 0
1.427597 -0.037886 0
1.437597 -0.018692 0
1.441012 0.000555 0
1.437416 0.019242 0
1.426822 0.036489 0
1.409871 0.051261 0
1.387732 0.062636 0
1.361906 0.069932 0
1.334093 0.072745 0
1.306069 0.070948 0
1.279571 0.064671 0
1.256177 0.054261 0
1.237222 0.040167 0
1.223831 0.022825 0
1.217120 0.002715 0
1.218467 -0.018989 0
1.229042 -0.039744 0
1.248650 -0.055798 0
1.275248 -0.063282 0
1.305029 -0.059738 0
1.332824 -0.045412 0
1.353194 -0.023554 0
1.362497 0.001100 0
1.360621 0.024859 0
1.349371 0.045758 0
1.330812 0.062802 0
1.306926 0.075630 0
1.279434 0.084258 0
1.249783 0.088853 0
1.219199 0.089605 0
1.188761 0.086675 0
1.159445 0.080205 0
1.132148 0.070363 0
1.107665 0.057393 0
1.086647 0.041650 0
1.069550 0.023578 0
1.056593 0.003697 0
1.047807 -0.017261 0
1.043336 -0.038237 0
1.043550 -0.057990 0
1.049112 -0.075322 0
1.061076 -0.089014 0
1.080404 -0.097472 0
1.107161 -0.098650 0
1.139988 -0.090587 0
1.176008 -0.072341 0
1.211036 -0.044993 0
1.240060 -0.012345 0
1.258396 0.020025 0
1.264749 0.048239 0
1.260574 0.070841 0
1.247777 0.087059 0
1.228443 0.096584 0
1.204637 0.099514 0
1.178259 0.096302 0
1.150929 0.087755 0
1.123934 0.075021 0
1.098247 0.059515 0
1.074588 0.042749 0
1.053438 0.026073 0
1.034931 0.010452 0
1.019007 -0.003573 0
1.005576 -0.015951 0
0.994857 -0.027104 0
0.987653 -0.037632 0
0.985120 -0.047949 0
0.988384 -0.057890 0
0.998058 -0.066525 0
1.013957 -0.072321 0
1.035152 -0.073552 0
1.060178 -0.068760 0
1.087239 -0.057142 0
1.114296 -0.038923 0
1.138997 -0.015728 0
1.158628 0.009126 0
1.171343 0.032295 0
1.177184 0.051698 0
1.176778 0.065820 0
1.171023 0.073602 0
1.160904 0.074690 0
1.147391 0.069635 0
1.131446 0.059877 0
1.114114 0.047493 0
1.096567 0.034787 0
1.079996 0.023914 0
1.065414 0.017677 0
1.055301 0.015591 0
1.000000 0.000010 0
1.001914 -0.020523 0
1.007965 -0.042605 0
1.019098 -0.067482 0
1.037104 -0.095974 0
1.064800 -0.127928 0
1.106014 -0.160982 0
1.164156 -0.190378 0
1.243719 -0.200850 0
1.311349 -0.185593 0
1.358787 -0.157671 0
1.391100 -0.127847 0
1.413963 -0.100216 0
1.431316 -0.074986 0
1.445168 -0.050607 0
1.455344 -0.025426 0
1.459732 0.000763 0
1.456429 0.026870 0
1.444899 0.051300 0
1.425779 0.072303 0
1.400467 0.088462 0
1.370741 0.098812 0
1.338579 0.102810 0
1.306040 0.100316 0
1.275124 0.091592 0
1.247577 0.077230 0
1.224710 0.057968 0
1.207385 0.034398 0
1.196164 0.006806 0
1.191824 -0.023912 0
1.196309 -0.054556 0
1.210646 -0.079730 0
1.234383 -0.093699 0
1.265713 -0.092157 0
1.300663 -0.073843 0
1.332628 -0.042129 0
1.353892 -0.004779 0
1.360079 0.030724 0
1.353491 0.060859 0
1.337397 0.084669 0
1.314633 0.102134 0
1.287426 0.113681 0
1.257479 0.119830 0
1.226109 0.121018 0
1.194394 0.117559 0
1.163275 0.109686 0
1.133616 0.097643 0
1.106182 0.081789 0
1.081495 0.062704 0
1.059567 0.041207 0
1.039709 0.018216 0
1.020778 -0.005554 0
1.002168 -0.029582 0
0.985310 -0.053334 0
0.973553 -0.076343 0
0.970582 -0.097725 0
0.978854 -0.115263 0
0.998687 -0.125464 0
1.028555 -0.124688 0
1.065694 -0.110478 0
1.106470 -0.082609 0
1.146440 -0.043798 0
1.180266 -0.000522 0
1.202908 0.039665 0
1.213871 0.072727 0
1.214576 0.097509 0
1.206787 0.113599 0
1.192351 0.121173 0
1.173035 0.120886 0
1.150419 0.113800 0
1.125859 0.101317 0
1.100470 0.085092 0
1.075081 0.066900 0
1.050149 0.048455 0
1.025748 0.031117 0
1.001825 0.015555 0
0.978795 0.001457 0
0.957871 -0.012371 0
0.941064 -0.027187 0
0.930700 -0.043490 0
0.928353 -0.060599 0
0.934279 -0.076634 0
0.947655 -0.089122 0
0.967083 -0.095712 0
0.990989 -0.094643 0
1.017809 -0.085013 0
1.046016 -0.066943 0
1.074028 -0.041753 0
1.099949 -0.012228 0
1.121247 0.017329 0
1.136469 0.043231 0
1.145530 0.063462 0
1.148665 0.076748 0
1.146318 0.082621 0
1.139091 0.081519 0
1.127779 0.074716 0
1.113404 0.064091 0
1.097192 0.051813 0
1.080522 0.040017 0
1.064868 0.030805 0
1.053420 0.026569 0
1.000000 0.000012 0
1.001081 -0.023867 0
1.004640 -0.049987 0
1.011717 -0.080482 0
1.024503 -0.117393 0
1.047052 -0.162121 0
1.086374 -0.213276 0
1.152086 -0.268044 0
1.266770 -0.283772 0
1.338304 -0.245051 0
1.370634 -0.194421 0
1.385187 -0.150875 0
1.392770 -0.116318 0
1.399053 -0.088097 0
1.407227 -0.061914 0
1.417595 -0.033256 0
1.426069 -0.000530 0
1.426306 0.034071 0
1.416696 0.067135 0
1.397978 0.095689 0
1.371797 0.117670 0
1.340105 0.131815 0
1.305034 0.137442 0
1.268858 0.134399 0
1.233850 0.123132 0
1.201923 0.104673 0
1.174169 0.080360 0
1.150723 0.051379 0
1.131043 0.018289 0
1.114042 -0.019120 0
1.100380 -0.058552 0
1.094994 -0.093860 0
1.102211 -0.118342 0
1.124692 -0.126017 0
1.161280 -0.112333 0
1.206140 -0.076792 0
1.249192 -0.026354 0
1.278823 0.025263 0
1.290576 0.068441 0
1.288668 0.101659 0
1.276801 0.125601 0
1.257756 0.141411 0
1.233619 0.150169 0
1.206011 0.152688 0
1.176255 0.149507 0
1.145496 0.140981 0
1.114754 0.127453 0
1.084826 0.109512 0
1.055893 0.088263 0
1.026978 0.065363 0
0.996070 0.042485 0
0.961747 0.020280 0
0.925417 -0.002767 0
0.891944 -0.029371 0
0.868154 -0.060589 0
0.858799 -0.094309 0
0.864319 -0.125570 0
0.882741 -0.148345 0
0.911488 -0.157588 0
0.947996 -0.150254 0
0.989641 -0.125739 0
1.033493 -0.086143 0
1.075960 -0.036447 0
1.111861 0.014630 0
1.136922 0.059170 0
1.151232 0.094142 0
1.155837 0.118809 0
1.152117 0.133265 0
1.141541 0.138234 0
1.125522 0.134931 0
1.105304 0.124969 0
1.081847 0.110292 0
1.055723 0.093068 0
1.027158 0.075405 0
0.996419 0.058774 0
0.964509 0.043378 0
0.933654 0.028002 0
0.906960 0.010627 0
0.887324 -0.010460 0
0.876537 -0.035236 0
0.874910 -0.061467 0
0.881452 -0.085825 0
0.894644 -0.105122 0
0.912992 -0.116885 0
0.935211 -0.119483 0
0.960186 -0.112168 0
0.986882 -0.095141 0
1.014248 -0.069659 0
1.041104 -0.038090 0
1.065815 -0.004223 0
1.086073 0.027416 0
1.100874 0.053624 0
1.109923 0.072813 0
1.113224 0.084264 0
1.111048 0.088173 0
1.103928 0.085563 0
1.092661 0.078078 0
1.078305 0.067667 0
1.062238 0.056237 0
1.046228 0.044777 0
1.034185 0.038668 0
1.000000 0.000014 0
0.999903 -0.025170 0
0.999804 -0.053241 0
1.000433 -0.087341 0
1.003617 -0.131300 0
1.013583 -0.189783 0
1.039895 -0.266001 0
1.102054 -0.370768 0
1.264159 -0.387071 0
1.309348 -0.289470 0
1.293981 -0.204560 0
1.272725 -0.149972 0
1.253727 -0.114072 0
1.240170 -0.089439 0
1.235769 -0.069147 0
1.243592 -0.044270 0
1.261005 -0.007949 0
1.274088 0.036239 0
1.274833 0.079623 0
1.264870 0.117198 0
1.246036 0.146332 0
1.219781 0.165571 0
1.187796 0.174053 0
1.152276 0.171499 0
1.115783 0.158526 0
1.080352 0.136911 0
1.045794 0.109175 0
1.009202 0.077535 0
0.968044 0.043499 0
0.924017 0.006765 0
0.882739 -0.035496 0
0.854773 -0.081553 0
0.849872 -0.123396 0
0.869159 -0.151229 0
0.909314 -0.155299 0
0.965023 -0.130047 0
1.028859 -0.077459 0
1.089930 -0.010658 0
1.134962 0.051013 0
1.161035 0.098443 0
1.172457 0.133045 0
1.172338 0.156863 0
1.163003 0.171573 0
1.146363 0.178380 0
1.124043 0.178072 0
1.097373 0.171185 0
1.067199 0.158311 0
1.033478 0.140649 0
0.995029 0.120551 0
0.950394 0.101028 0
0.900168 0.083447 0
0.849056 0.065101 0
0.804944 0.040224 0
0.774710 0.003933 0
0.760964 -0.043192 0
0.761929 -0.093883 0
0.774026 -0.139198 0
0.794432 -0.172629 0
0.821591 -0.189940 0
0.854609 -0.188630 0
0.892487 -0.168107 0
0.933710 -0.130121 0
0.976134 -0.078893 0
1.016792 -0.021299 0
1.050597 0.033355 0
1.074846 0.078592 0
1.089548 0.112713 0
1.095319 0.135469 0
1.093065 0.147480 0
1.083748 0.150036 0
1.068189 0.144991 0
1.046924 0.134671 0
1.020254 0.121588 0
0.988652 0.107757 0
0.953516 0.093764 0
0.917717 0.078319 0
0.885275 0.059004 0
0.860103 0.033960 0
0.844507 0.003238 0
0.838451 -0.031075 0
0.840389 -0.065512 0
0.848437 -0.096366 0
0.861076 -0.120660 0
0.877286 -0.136277 0
0.896401 -0.141836 0
0.917894 -0.136681 0
0.941206 -0.121003 0
0.965656 -0.095973 0
0.990405 -0.063794 0
1.014407 -0.027640 0
1.035966 0.008172 0
1.053243 0.039612 0
1.065477 0.064396 0
1.072288 0.081494 0
1.073608 0.090813 0
1.069664 0.093101 0
1.060984 0.089711 0
1.048467 0.082234 0
1.033522 0.072092 0
1.018172 0.058856 0
1.006486 0.051016 0
1.000000 0.000016 0
0.998483 -0.023675 0
0.993860 -0.050514 0
0.985986 -0.084289 0
0.974983 -0.130531 0
0.962297 -0.198384 0
0.954135 -0.301738 0
0.972293 -0.492306 0
1.128514 -0.491072 0
1.111156 -0.274881 0
1.003024 -0.157791 0
0.940542 -0.110609 0
0.894446 -0.083760 0
0.858933 -0.070138 0
0.838480 -0.065337 0
0.842148 -0.058495 0
0.872942 -0.031029 0
0.918089 0.020239 0
0.951333 0.076349 0
0.969655 0.124482 0
0.975589 0.162754 0
0.968661 0.190052 0
0.948887 0.204945 0
0.916723 0.206410 0
0.872605 0.195056 0
0.817143 0.174667 0
0.752600 0.151521 0
0.684640 0.129140 0
0.622264 0.103486 0
0.575915 0.066197 0
0.553129 0.010702 0
0.553247 -0.060989 0
0.572137 -0.132730 0
0.606286 -0.185466 0
0.653659 -0.208204 0
0.713120 -0.196335 0
0.782858 -0.151259 0
0.858711 -0.080841 0
0.930699 -0.002665 0
0.986003 0.064164 0
1.023148 0.114297 0
1.045225 0.150863 0
1.054298 0.176142 0
1.052090 0.191647 0
1.040041 0.198495 0
1.019077 0.197823 0
0.989242 0.191347 0
0.949682 0.181680 0
0.899853 0.171346 0
0.842191 0.160223 0
0.784102 0.143825 0
0.736058 0.115507 0
0.706177 0.071583 0
0.696182 0.014615 0
0.701163 -0.047801 0
0.713877 -0.107364 0
0.730092 -0.158067 0
0.748586 -0.195907 0
0.769886 -0.217764 0
0.795108 -0.221151 0
0.824968 -0.204844 0
0.859185 -0.169794 0
0.896417 -0.119531 0
0.934562 -0.059836 0
0.970473 0.001115 0
0.999632 0.055190 0
1.020566 0.098336 0
1.032984 0.129747 0
1.037057 0.149803 0
1.033106 0.159807 0
1.021418 0.161792 0
1.002247 0.158225 0
0.976160 0.151339 0
0.944677 0.142140 0
0.910772 0.129708 0
0.878583 0.111618 0
0.852186 0.085615 0
0.834177 0.051396 0
0.825075 0.011193 0
0.823704 -0.031117 0
0.827958 -0.071451 0
0.835994 -0.106510 0
0.846645 -0.133969 0
0.859369 -0.152208 0
0.874033 -0.160090 0
0.890655 -0.156971 0
0.909153 -0.142901 0
0.929198 -0.118857 0
0.950183 -0.086841 0
0.971258 -0.049785 0
0.991322 -0.011422 0
1.008586 0.024111 0
1.021795 0.053767 0
1.030254 0.076131 0
1.033606 0.090793 0
1.031821 0.098184 0
1.025241 0.099271 0
1.014697 0.095126 0
1.001644 0.086529 0
0.988192 0.071809 0
0.977854 0.062441 0
1.000000 0.000016 0
0.997117 -0.019031 0
0.988063 -0.040740 0
0.971478 -0.068455 0
0.944689 -0.107598 0
0.902886 -0.168923 0
0.837266 -0.275989 0
0.732399 -0.545146 0
0.546715 -0.525938 0
-0.000020 -0.163979 0
0.392013 -0.033939 0
0.317224 -0.041391 0
0.298213 -0.032464 0
0.301512 -0.033473 0
0.306010 -0.052365 0
0.323632 -0.078736 0
0.366520 -0.083894 0
0.437010 -0.042156 0
0.513859 0.028054 0
0.571555 0.092939 0
0.609497 0.147323 0
0.625882 0.192271 0
0.619702 0.225989 0
0.590657 0.247780 0
0.539973 0.258109 0
0.472743 0.256925 0
0.400512 0.241688 0
0.340161 0.207882 0
0.306894 0.152237 0
0.306637 0.075911 0
0.334133 -0.012822 0
0.373870 -0.100561 0
0.413603 -0.176440 0
0.451940 -0.232759 0
0.492782 -0.262135 0
0.540980 -0.259243 0
0.599601 -0.223050 0
0.668380 -0.158500 0
0.743496 -0.076280 0
0.814107 0.005992 0
0.869014 0.073820 0
0.907565 0.125711 0
0.931146 0.164707 0
0.940739 0.192635 0
0.937036 0.211082 0
0.920281 0.221982 0
0.890454 0.227704 0
0.848427 0.230037 0
0.798049 0.228040 0
0.747370 0.216780 0
0.706504 0.189582 0
0.682725 0.143030 0
0.677036 0.080105 0
0.685055 0.008953 0
0.699904 -0.060880 0
0.715926 -0.122807 0
0.730433 -0.173903 0
0.743093 -0.212421 0
0.755278 -0.236462 0
0.769336 -0.243715 0
0.787578 -0.232189 0
0.811210 -0.201571 0
0.839816 -0.154271 0
0.871650 -0.095357 0
0.904238 -0.031717 0
0.933748 0.028499 0
0.957043 0.079361 0
0.972916 0.118978 0
0.980803 0.147357 0
0.980442 0.165674 0
0.971789 0.175849 0
0.955236 0.179927 0
0.932088 0.179157 0
0.904987 0.173143 0
0.877744 0.159855 0
0.854335 0.136904 0
0.837549 0.103412 0
0.828242 0.061072 0
0.825621 0.013712 0
0.828071 -0.033957 0
0.833711 -0.077800 0
0.841053 -0.115051 0
0.849215 -0.144033 0
0.857924 -0.163663 0
0.867406 -0.173120 0
0.878164 -0.171799 0
0.890658 -0.159545 0
0.905033 -0.137003 0
0.920995 -0.105855 0
0.937858 -0.068780 0
0.954656 -0.029157 0
0.970075 0.009136 0
0.982581 0.042725 0
0.991239 0.069679 0
0.995488 0.089241 0
0.995132 0.101462 0
0.990421 0.106832 0
0.982153 0.105826 0
0.971740 0.098592 0
0.961114 0.082641 0
0.952853 0.072033 0
1.000000 0.000016 0
0.996199 -0.011735 0
0.984158 -0.024868 0
0.961680 -0.040904 0
0.924147 -0.061926 0
0.862323 -0.090950 0
0.756566 -0.131245 0
0.563724 -0.201753 0
0.074271 0.000465 0
-0.527693 0.124912 0
0.000000 -0.000006 0
-0.034216 -0.027753 0
-0.053588 -0.068047 0
-0.048507 -0.077935 0
-0.054224 -0.087460 0
-0.052791 -0.119009 0
-0.027323 -0.144411 0
0.028523 -0.127102 0
0.115729 -0.058199 0
0.205218 0.028842 0
0.264731 0.108426 0
0.296775 0.179845 0
0.304817 0.240169 0
0.290468 0.286142 0
0.260160 0.312976 0
0.226146 0.314137 0
0.203566 0.284114 0
0.204076 0.222770 0
0.230551 0.137022 0
0.276390 0.038967 0
0.325454 -0.056529 0
0.366800 -0.140462 0
0.397879 -0.210806 0
0.420265 -0.264649 0
0.439213 -0.297242 0
0.462124 -0.303154 0
0.495857 -0.278659 0
0.543719 -0.224737 0
0.604009 -0.148394 0
0.670728 -0.061356 0
0.731916 0.020837 0
0.778663 0.088729 0
0.810245 0.142966 0
0.826751 0.185755 0
0.828292 0.218951 0
0.815259 0.244403 0
0.789225 0.263199 0
0.754354 0.274084 0
0.718140 0.272402 0
0.689720 0.251771 0
0.675923 0.208473 0
0.678145 0.144979 0
0.692771 0.069258 0
0.713907 -0.008246 0
0.735077 -0.078665 0
0.752628 -0.137888 0
0.764877 -0.185231 0
0.771681 -0.220751 0
0.774458 -0.244009 0
0.776081 -0.253453 0
0.780190 -0.246720 0
0.789866 -0.222034 0
0.806352 -0.179972 0
0.828707 -0.124258 0
0.854501 -0.060984 0