# vtk DataFile Version 2.0
generated by CFD-lab course output (written by Tobias Neckel) 
ASCII

DATASET STRUCTURED_GRID
DIMENSIONS  101 21 1 
POINTS 2121 float

0.000000 0.000000 0
0.100000 0.000000 0
0.200000 0.000000 0
0.300000 0.000000 0
0.400000 0.000000 0
0.500000 0.000000 0
0.600000 0.000000 0
0.700000 0.000000 0
0.800000 0.000000 0
0.900000 0.000000 0
1.000000 0.000000 0
1.100000 0.000000 0
1.200000 0.000000 0
1.300000 0.000000 0
1.400000 0.000000 0
1.500000 0.000000 0
1.600000 0.000000 0
1.700000 0.000000 0
1.800000 0.000000 0
1.900000 0.000000 0
2.000000 0.000000 0
2.100000 0.000000 0
2.200000 0.000000 0
2.300000 0.000000 0
2.400000 0.000000 0
2.500000 0.000000 0
2.600000 0.000000 0
2.700000 0.000000 0
2.800000 0.000000 0
2.900000 0.000000 0
3.000000 0.000000 0
3.100000 0.000000 0
3.200000 0.000000 0
3.300000 0.000000 0
3.400000 0.000000 0
3.500000 0.000000 0
3.600000 0.000000 0
3.700000 0.000000 0
3.800000 0.000000 0
3.900000 0.000000 0
4.000000 0.000000 0
4.100000 0.000000 0
4.200000 0.000000 0
4.300000 0.000000 0
4.400000 0.000000 0
4.500000 0.000000 0
4.600000 0.000000 0
4.700000 0.000000 0
4.800000 0.000000 0
4.900000 0.000000 0
5.000000 0.000000 0
5.100000 0.000000 0
5.200000 0.000000 0
5.300000 0.000000 0
5.400000 0.000000 0
5.500000 0.000000 0
5.600000 0.000000 0
5.700000 0.000000 0
5.800000 0.000000 0
5.900000 0.000000 0
6.000000 0.000000 0
6.100000 0.000000 0
6.200000 0.000000 0
6.300000 0.000000 0
6.400000 0.000000 0
6.500000 0.000000 0
6.600000 0.000000 0
6.700000 0.000000 0
6.800000 0.000000 0
6.900000 0.000000 0
7.000000 0.000000 0
7.100000 0.000000 0
7.200000 0.000000 0
7.300000 0.000000 0
7.400000 0.000000 0
7.500000 0.000000 0
7.600000 0.000000 0
7.700000 0.000000 0
7.800000 0.000000 0
7.900000 0.000000 0
8.000000 0.000000 0
8.100000 0.000000 0
8.200000 0.000000 0
8.300000 0.000000 0
8.400000 0.000000 0
8.500000 0.000000 0
8.600000 0.000000 0
8.700000 0.000000 0
8.800000 0.000000 0
8.900000 0.000000 0
9.000000 0.000000 0
9.100000 0.000000 0
9.200000 0.000000 0
9.300000 0.000000 0
9.400000 0.000000 0
9.500000 0.000000 0
9.600000 0.000000 0
9.700000 0.000000 0
9.800000 0.000000 0
9.900000 0.000000 0
10.000000 0.000000 0
0.000000 0.100000 0
0.100000 0.100000 0
0.200000 0.100000 0
0.300000 0.100000 0
0.400000 0.100000 0
0.500000 0.100000 0
0.600000 0.100000 0
0.700000 0.100000 0
0.800000 0.100000 0
0.900000 0.100000 0
1.000000 0.100000 0
1.100000 0.100000 0
1.200000 0.100000 0
1.300000 0.100000 0
1.400000 0.100000 0
1.500000 0.100000 0
1.600000 0.100000 0
1.700000 0.100000 0
1.800000 0.100000 0
1.900000 0.100000 0
2.000000 0.100000 0
2.100000 0.100000 0
2.200000 0.100000 0
2.300000 0.100000 0
2.400000 0.100000 0
2.500000 0.100000 0
2.600000 0.100000 0
2.700000 0.100000 0
2.800000 0.100000 0
2.900000 0.100000 0
3.000000 0.100000 0
3.100000 0.100000 0
3.200000 0.100000 0
3.300000 0.100000 0
3.400000 0.100000 0
3.500000 0.100000 0
3.600000 0.100000 0
3.700000 0.100000 0
3.800000 0.100000 0
3.900000 0.100000 0
4.000000 0.100000 0
4.100000 0.100000 0
4.200000 0.100000 0
4.300000 0.100000 0
4.400000 0.100000 0
4.500000 0.100000 0
4.600000 0.100000 0
4.700000 0.100000 0
4.800000 0.100000 0
4.900000 0.100000 0
5.000000 0.100000 0
5.100000 0.100000 0
5.200000 0.100000 0
5.300000 0.100000 0
5.400000 0.100000 0
5.500000 0.100000 0
5.600000 0.100000 0
5.700000 0.100000 0
5.800000 0.100000 0
5.900000 0.100000 0
6.000000 0.100000 0
6.100000 0.100000 0
6.200000 0.100000 0
6.300000 0.100000 0
6.400000 0.100000 0
6.500000 0.100000 0
6.600000 0.100000 0
6.700000 0.100000 0
6.800000 0.100000 0
6.900000 0.100000 0
7.000000 0.100000 0
7.100000 0.100000 0
7.200000 0.100000 0
7.300000 0.100000 0
7.400000 0.100000 0
7.500000 0.100000 0
7.600000 0.100000 0
7.700000 0.100000 0
7.800000 0.100000 0
7.900000 0.100000 0
8.000000 0.100000 0
8.100000 0.100000 0
8.200000 0.100000 0
8.300000 0.100000 0
8.400000 0.100000 0
8.500000 0.100000 0
8.600000 0.100000 0
8.700000 0.100000 0
8.800000 0.100000 0
8.900000 0.100000 0
9.000000 0.100000 0
9.100000 0.100000 0
9.200000 0.100000 0
9.300000 0.100000 0
9.400000 0.100000 0
9.500000 0.100000 0
9.600000 0.100000 0
9.700000 0.100000 0
9.800000 0.100000 0
9.900000 0.100000 0
10.000000 0.100000 0
0.000000 0.200000 0
0.100000 0.200000 0
0.200000 0.200000 0
0.300000 0.200000 0
0.400000 0.200000 0
0.500000 0.200000 0
0.600000 0.200000 0
0.700000 0.200000 0
0.800000 0.200000 0
0.900000 0.200000 0
1.000000 0.200000 0
1.100000 0.200000 0
1.200000 0.200000 0
1.300000 0.200000 0
1.400000 0.200000 0
1.500000 0.200000 0
1.600000 0.200000 0
1.700000 0.200000 0
1.800000 0.200000 0
1.900000 0.200000 0
2.000000 0.200000 0
2.100000 0.200000 0
2.200000 0.200000 0
2.300000 0.200000 0
2.400000 0.200000 0
2.500000 0.200000 0
2.600000 0.200000 0
2.700000 0.200000 0
2.800000 0.200000 0
2.900000 0.200000 0
3.000000 0.200000 0
3.100000 0.200000 0
3.200000 0.200000 0
3.300000 0.200000 0
3.400000 0.200000 0
3.500000 0.200000 0
3.600000 0.200000 0
3.700000 0.200000 0
3.800000 0.200000 0
3.900000 0.200000 0
4.000000 0.200000 0
4.100000 0.200000 0
4.200000 0.200000 0
4.300000 0.200000 0
4.400000 0.200000 0
4.500000 0.200000 0
4.600000 0.200000 0
4.700000 0.200000 0
4.800000 0.200000 0
4.900000 0.200000 0
5.000000 0.200000 0
5.100000 0.200000 0
5.200000 0.200000 0
5.300000 0.200000 0
5.400000 0.200000 0
5.500000 0.200000 0
5.600000 0.200000 0
5.700000 0.200000 0
5.800000 0.200000 0
5.900000 0.200000 0
6.000000 0.200000 0
6.100000 0.200000 0
6.200000 0.200000 0
6.300000 0.200000 0
6.400000 0.200000 0
6.500000 0.200000 0
6.600000 0.200000 0
6.700000 0.200000 0
6.800000 0.200000 0
6.900000 0.200000 0
7.000000 0.200000 0
7.100000 0.200000 0
7.200000 0.200000 0
7.300000 0.200000 0
7.400000 0.200000 0
7.500000 0.200000 0
7.600000 0.200000 0
7.700000 0.200000 0
7.800000 0.200000 0
7.900000 0.200000 0
8.000000 0.200000 0
8.100000 0.200000 0
8.200000 0.200000 0
8.300000 0.200000 0
8.400000 0.200000 0
8.500000 0.200000 0
8.600000 0.200000 0
8.700000 0.200000 0
8.800000 0.200000 0
8.900000 0.200000 0
9.000000 0.200000 0
9.100000 0.200000 0
9.200000 0.200000 0
9.300000 0.200000 0
9.400000 0.200000 0
9.500000 0.200000 0
9.600000 0.200000 0
9.700000 0.200000 0
9.800000 0.200000 0
9.900000 0.200000 0
10.000000 0.200000 0
0.000000 0.300000 0
0.100000 0.300000 0
0.200000 0.300000 0
0.300000 0.300000 0
0.400000 0.300000 0
0.500000 0.300000 0
0.600000 0.300000 0
0.700000 0.300000 0
0.800000 0.300000 0
0.900000 0.300000 0
1.000000 0.300000 0
1.100000 0.300000 0
1.200000 0.300000 0
1.300000 0.300000 0
1.400000 0.300000 0
1.500000 0.300000 0
1.600000 0.300000 0
1.700000 0.300000 0
1.800000 0.300000 0
1.900000 0.300000 0
2.000000 0.300000 0
2.100000 0.300000 0
2.200000 0.300000 0
2.300000 0.300000 0
2.400000 0.300000 0
2.500000 0.300000 0
2.600000 0.300000 0
2.700000 0.300000 0
2.800000 0.300000 0
2.900000 0.300000 0
3.000000 0.300000 0
3.100000 0.300000 0
3.200000 0.300000 0
3.300000 0.300000 0
3.400000 0.300000 0
3.500000 0.300000 0
3.600000 0.300000 0
3.700000 0.300000 0
3.800000 0.300000 0
3.900000 0.300000 0
4.000000 0.300000 0
4.100000 0.300000 0
4.200000 0.300000 0
4.300000 0.300000 0
4.400000 0.300000 0
4.500000 0.300000 0
4.600000 0.300000 0
4.700000 0.300000 0
4.800000 0.300000 0
4.900000 0.300000 0
5.000000 0.300000 0
5.100000 0.300000 0
5.200000 0.300000 0
5.300000 0.300000 0
5.400000 0.300000 0
5.500000 0.300000 0
5.600000 0.300000 0
5.700000 0.300000 0
5.800000 0.300000 0
5.900000 0.300000 0
6.000000 0.300000 0
6.100000 0.300000 0
6.200000 0.300000 0
6.300000 0.300000 0
6.400000 0.300000 0
6.500000 0.300000 0
6.600000 0.300000 0
6.700000 0.300000 0
6.800000 0.300000 0
6.900000 0.300000 0
7.000000 0.300000 0
7.100000 0.300000 0
7.200000 0.300000 0
7.300000 0.300000 0
7.400000 0.300000 0
7.500000 0.300000 0
7.600000 0.300000 0
7.700000 0.300000 0
7.800000 0.300000 0
7.900000 0.300000 0
8.000000 0.300000 0
8.100000 0.300000 0
8.200000 0.300000 0
8.300000 0.300000 0
8.400000 0.300000 0
8.500000 0.300000 0
8.600000 0.300000 0
8.700000 0.300000 0
8.800000 0.300000 0
8.900000 0.300000 0
9.000000 0.300000 0
9.100000 0.300000 0
9.200000 0.300000 0
9.300000 0.300000 0
9.400000 0.300000 0
9.500000 0.300000 0
9.600000 0.300000 0
9.700000 0.300000 0
9.800000 0.300000 0
9.900000 0.300000 0
10.000000 0.300000 0
0.000000 0.400000 0
0.100000 0.400000 0
0.200000 0.400000 0
0.300000 0.400000 0
0.400000 0.400000 0
0.500000 0.400000 0
0.600000 0.400000 0
0.700000 0.400000 0
0.800000 0.400000 0
0.900000 0.400000 0
1.000000 0.400000 0
1.100000 0.400000 0
1.200000 0.400000 0
1.300000 0.400000 0
1.400000 0.400000 0
1.500000 0.400000 0
1.600000 0.400000 0
1.700000 0.400000 0
1.800000 0.400000 0
1.900000 0.400000 0
2.000000 0.400000 0
2.100000 0.400000 0
2.200000 0.400000 0
2.300000 0.400000 0
2.400000 0.400000 0
2.500000 0.400000 0
2.600000 0.400000 0
2.700000 0.400000 0
2.800000 0.400000 0
2.900000 0.400000 0
3.000000 0.400000 0
3.100000 0.400000 0
3.200000 0.400000 0
3.300000 0.400000 0
3.400000 0.400000 0
3.500000 0.400000 0
3.600000 0.400000 0
3.700000 0.400000 0
3.800000 0.400000 0
3.900000 0.400000 0
4.000000 0.400000 0
4.100000 0.400000 0
4.200000 0.400000 0
4.300000 0.400000 0
4.400000 0.400000 0
4.500000 0.400000 0
4.600000 0.400000 0
4.700000 0.400000 0
4.800000 0.400000 0
4.900000 0.400000 0
5.000000 0.400000 0
5.100000 0.400000 0
5.200000 0.400000 0
5.300000 0.400000 0
5.400000 0.400000 0
5.500000 0.400000 0
5.600000 0.400000 0
5.700000 0.400000 0
5.800000 0.400000 0
5.900000 0.400000 0
6.000000 0.400000 0
6.100000 0.400000 0
6.200000 0.400000 0
6.300000 0.400000 0
6.400000 0.400000 0
6.500000 0.400000 0
6.600000 0.400000 0
6.700000 0.400000 0
6.800000 0.400000 0
6.900000 0.400000 0
7.000000 0.400000 0
7.100000 0.400000 0
7.200000 0.400000 0
7.300000 0.400000 0
7.400000 0.400000 0
7.500000 0.400000 0
7.600000 0.400000 0
7.700000 0.400000 0
7.800000 0.400000 0
7.900000 0.400000 0
8.000000 0.400000 0
8.100000 0.400000 0
8.200000 0.400000 0
8.300000 0.400000 0
8.400000 0.400000 0
8.500000 0.400000 0
8.600000 0.400000 0
[...]
POINT_DATA 2121 

VECTORS velocity float
0.500000 0.000000 0
0.000004 0.000000 0
0.000014 0.000000 0
0.000030 0.000000 0
0.000050 0.000000 0
0.000074 0.000000 0
0.000097 0.000000 0
0.000115 0.000000 0
0.000122 0.000000 0
0.000110 0.000000 0
0.000073 0.000000 0
0.000004 0.000000 0
-0.000104 0.000000 0
-0.000252 0.000000 0
-0.000440 0.000000 0
-0.000661 0.000000 0
-0.000898 0.000000 0
-0.001114 0.000000 0
-0.001265 0.000000 0
-0.001292 0.000000 0
-0.001151 0.000000 0
-0.000825 0.000000 0
-0.000341 0.000000 0
0.000245 0.000000 0
0.000865 0.000000 0
0.001456 0.000000 0
0.001967 0.000000 0
0.002360 0.000000 0
0.002610 0.000000 0
0.002700 0.000000 0
0.002620 0.000000 0
0.002365 0.000000 0
0.001933 0.000000 0
0.001325 0.000000 0
0.000542 0.000000 0
-0.000422 0.000000 0
-0.001552 0.000000 0
-0.002743 0.000000 0
-0.003870 0.000000 0
-0.004774 0.000000 0
-0.005281 0.000000 0
-0.005245 0.000000 0
-0.004602 0.000000 0
-0.003424 0.000000 0
-0.001919 0.000000 0
-0.000359 0.000000 0
0.001113 0.000000 0
0.002403 0.000000 0
0.003448 0.000000 0
0.004217 0.000000 0
0.004706 0.000000 0
0.004926 0.000000 0
0.004898 0.000000 0
0.004640 0.000000 0
0.004165 0.000000 0
0.003478 0.000000 0
0.002577 0.000000 0
0.001468 0.000000 0
0.000190 0.000000 0
-0.001119 0.000000 0
-0.002330 0.000000 0
-0.003418 0.000000 0
-0.004370 0.000000 0
-0.005163 0.000000 0
-0.005754 0.000000 0
-0.006069 0.000000 0
-0.006007 0.000000 0
-0.005464 0.000000 0
-0.004386 0.000000 0
-0.002845 0.000000 0
-0.001068 0.000000 0
0.000714 0.000000 0
0.002404 0.000000 0
0.003902 0.000000 0
0.005110 0.000000 0
0.005942 0.000000 0
0.006335 0.000000 0
0.006249 0.000000 0
0.005678 0.000000 0
0.004663 0.000000 0
0.003299 0.000000 0
0.001735 0.000000 0
0.000167 0.000000 0
-0.001142 0.000000 0
-0.002122 0.000000 0
-0.002853 0.000000 0
-0.003418 0.000000 0
-0.003886 0.000000 0
-0.004303 0.000000 0
-0.004685 0.000000 0
-0.005018 0.000000 0
-0.005250 0.000000 0
-0.005307 0.000000 0
-0.005107 0.000000 0
-0.004595 0.000000 0
-0.003773 0.000000 0
-0.002728 0.000000 0
-0.001610 0.000000 0
-0.000538 0.000000 0
0.000413 0.000000 0
0.001130 0.000000 0
1.000000 -0.000003 0
1.002651 -0.004740 0
1.010782 -0.010244 0
1.024754 -0.016186 0
1.044945 -0.022353 0
1.071570 -0.028363 0
1.104366 -0.033552 0
1.142189 -0.037009 0
1.182724 -0.037824 0
1.222414 -0.035693 0
1.258043 -0.031216 0
1.287712 -0.025450 0
1.310818 -0.019415 0
1.327699 -0.013872 0
1.339289 -0.009305 0
1.346854 -0.005944 0
1.351762 -0.003788 0
1.355265 -0.002606 0
1.358265 -0.001961 0
1.361082 -0.001273 0
1.363304 0.000026 0
1.363896 0.002316 0
1.361574 0.005649 0
1.355246 0.009766 0
1.344275 0.014243 0
1.328554 0.018624 0
1.308449 0.022514 0
1.284678 0.025611 0
1.258202 0.027710 0
1.230136 0.028676 0
1.201687 0.028433 0
1.174106 0.026940 0
1.148665 0.024189 0
1.126620 0.020181 0
1.109204 0.014901 0
1.097597 0.008307 0
1.092893 0.000520 0
1.096001 -0.007913 0
1.107424 -0.016125 0
1.126883 -0.023099 0
1.152964 -0.027714 0
1.183030 -0.029002 0
1.213465 -0.026479 0
1.240253 -0.020432 0
1.259827 -0.011962 0
1.269920 -0.002584 0
1.269959 0.006569 0
1.260620 0.014857 0
1.243186 0.021824 0
1.219290 0.027203 0
1.190703 0.030894 0
1.159196 0.032916 0
1.126458 0.033341 0
1.094069 0.032251 0
1.063509 0.029698 0
1.036158 0.025696 0
1.013280 0.020236 0
0.995948 0.013360 0
0.984936 0.005353 0
0.980654 -0.002990 0
0.983189 -0.010821 0
0.992313 -0.017773 0
1.007587 -0.023718 0
1.028393 -0.028532 0
1.053941 -0.032011 0
1.083227 -0.033812 0
1.114885 -0.033447 0
1.147004 -0.030400 0
1.177059 -0.024404 0
1.202077 -0.015805 0
1.219102 -0.005696 0
1.225926 0.004703 0
1.221969 0.014625 0
1.207999 0.023530 0
1.185394 0.030871 0
1.156040 0.036152 0
1.122220 0.038969 0
1.086482 0.039039 0
1.051475 0.036252 0
1.019709 0.030752 0
0.993266 0.023018 0
0.973489 0.013886 0
0.960831 0.004556 0
0.954968 -0.003565 0
0.955122 -0.009749 0
0.960193 -0.014227 0
0.969162 -0.017479 0
0.981277 -0.019935 0
0.996070 -0.021900 0
1.013305 -0.023518 0
1.032844 -0.024747 0
1.054460 -0.025362 0
1.077650 -0.025003 0
1.101514 -0.023282 0
1.124744 -0.019947 0
1.145749 -0.015079 0
1.162907 -0.009226 0
1.174944 -0.003354 0
1.181423 0.001488 0
1.183172 0.002163 0
1.184638 0.001514 0
1.000000 -0.000006 0
1.002971 -0.010768 0
1.011572 -0.022098 0
1.026116 -0.034161 0
1.047204 -0.046816 0
1.075482 -0.059423 0
1.111235 -0.070623 0
1.153699 -0.078363 0
1.200466 -0.080227 0
1.245800 -0.075318 0
1.285150 -0.065295 0
1.316612 -0.052769 0
1.340101 -0.039979 0
1.356474 -0.028464 0
1.367081 -0.019149 0
1.373533 -0.012468 0
1.377521 -0.008404 0
1.380625 -0.006495 0
1.384080 -0.005810 0
1.388409 -0.005033 0
1.393064 -0.002808 0
1.396482 0.001735 0
1.396794 0.008655 0
1.392541 0.017303 0
1.382978 0.026693 0
1.368075 0.035826 0
1.348348 0.043876 0
1.324664 0.050244 0
1.298094 0.054538 0
1.269815 0.056512 0
1.241065 0.056026 0
1.213100 0.053017 0
1.187169 0.047482 0
1.164485 0.039459 0
1.146194 0.029023 0
1.133356 0.016312 0
1.126951 0.001600 0
1.127992 -0.014525 0
1.137381 -0.030876 0
1.155331 -0.045533 0
1.180956 -0.056140 0
1.212198 -0.060494 0
1.245903 -0.057216 0
1.277992 -0.046356 0
1.303999 -0.029662 0
1.320170 -0.010127 0
1.324856 0.009305 0
1.318916 0.026778 0
1.304042 0.041334 0
1.282188 0.052486 0
1.255340 0.060097 0
1.225381 0.064248 0
1.194021 0.065129 0
1.162784 0.062951 0
1.133011 0.057913 0
1.105842 0.050230 0
1.082174 0.040211 0
1.062601 0.028345 0
1.047397 0.015295 0
1.036668 0.001750 0
1.030726 -0.011655 0
1.029838 -0.024394 0
1.034084 -0.036075 0
1.043458 -0.046347 0
1.057965 -0.054827 0
1.077618 -0.060937 0
1.102188 -0.063769 0
1.130837 -0.062166 0
1.161872 -0.055066 0
1.192670 -0.042036 0
1.219781 -0.023843 0
1.239420 -0.002862 0
1.248798 0.017933 0
1.247677 0.036580 0
1.237249 0.051963 0
1.219217 0.063178 0
1.195620 0.069561 0
1.168645 0.070746 0
1.140428 0.066772 0
1.112843 0.058206 0
1.087319 0.046215 0
1.064755 0.032427 0
1.045587 0.018511 0
1.030058 0.005696 0
1.018510 -0.005240 0
1.010963 -0.014057 0
1.007105 -0.021105 0
1.006638 -0.026931 0
1.009476 -0.032052 0
1.015792 -0.036800 0
1.025894 -0.041183 0
1.039981 -0.044836 0
1.057920 -0.047085 0
1.079126 -0.047125 0
1.102570 -0.044268 0
1.126846 -0.038197 0
1.150275 -0.029228 0
1.171063 -0.018550 0
1.187660 -0.008262 0
1.199332 -0.003249 0
1.205737 -0.001559 0
1.000000 -0.000010 0
1.002572 -0.016308 0
1.010360 -0.033391 0
1.023963 -0.051820 0
1.044483 -0.071722 0
1.073417 -0.092397 0
1.112271 -0.111771 0
1.161413 -0.126240 0
1.219380 -0.129922 0
1.273646 -0.120373 0
1.317134 -0.102024 0
1.348978 -0.080397 0
1.370591 -0.059274 0
1.383817 -0.040851 0
1.390629 -0.026364 0
1.393114 -0.016382 0
1.393411 -0.010876 0
1.393637 -0.009162 0
1.395683 -0.009743 0
1.400676 -0.010256 0
1.408042 -0.008047 0
1.415199 -0.001413 0
1.418809 0.009590 0
1.416655 0.023581 0
1.407877 0.038708 0
1.392671 0.053253 0
1.371888 0.065922 0
1.346674 0.075863 0
1.318277 0.082556 0
1.287971 0.085703 0
1.257034 0.085147 0
1.226732 0.080835 0
1.198296 0.072804 0
1.172893 0.061158 0
1.151601 0.046032 0
1.135401 0.027553 0
1.125206 0.005888 0
1.121941 -0.018338 0
1.126517 -0.043460 0
1.139339 -0.066671 0
1.160091 -0.084579 0
1.187950 -0.093946 0
1.221374 -0.092272 0
1.257456 -0.078527 0
1.291559 -0.054138 0
1.317971 -0.023440 0
1.331950 0.007824 0
1.332730 0.035672 0
1.322586 0.058553 0
1.304039 0.075905 0
1.279514 0.087701 0
1.251164 0.094236 0
1.220815 0.095939 0
1.189969 0.093260 0
1.159832 0.086640 0
1.131345 0.076533 0
1.105217 0.063478 0
1.081947 0.048139 0
1.061855 0.031288 0
1.045049 0.013683 0
1.031389 -0.003988 0
1.020697 -0.021128 0
1.013142 -0.037335 0
1.009453 -0.052409 0
1.010829 -0.066168 0
1.018679 -0.078031 0
1.033920 -0.086662 0
1.056423 -0.090083 0
1.084915 -0.086236 0
1.117165 -0.073712 0
1.150200 -0.052443 0
1.180437 -0.024311 0
1.203835 0.006371 0
1.217420 0.035081 0
1.221302 0.059331 0
1.216613 0.077782 0
1.204878 0.089542 0
1.187771 0.094230 0
1.166924 0.092052 0
1.143800 0.083859 0
1.119658 0.071102 0
1.095600 0.055615 0
1.072598 0.039248 0
1.051399 0.023506 0
1.032374 0.009339 0
1.015731 -0.002829 0
1.001574 -0.013161 0
0.990192 -0.022314 0
0.982316 -0.031062 0
0.978896 -0.039943 0
0.980788 -0.048944 0
0.988409 -0.057397 0
1.001555 -0.064156 0
1.019467 -0.067939 0
1.041007 -0.067675 0
1.064832 -0.062792 0
1.089496 -0.053451 0
1.113489 -0.040747 0
1.135203 -0.026789 0
1.152959 -0.015921 0
1.163278 -0.010000 0
1.000000 -0.000014 0
1.002042 -0.021125 0
1.008371 -0.043492 0
1.019872 -0.068287 0
1.038266 -0.096274 0
1.066303 -0.127213 0
1.107727 -0.158619 0
1.165829 -0.185470 0
1.244693 -0.192456 0
1.310742 -0.173068 0
1.355421 -0.140624 0
1.383278 -0.106223 0
1.399068 -0.074817 0
1.405795 -0.048501 0
1.405825 -0.028444 0
1.401515 -0.015246 0
1.395257 -0.008925 0
1.389645 -0.008766 0
1.387549 -0.012847 0
1.391650 -0.017390 0
1.402211 -0.017331 0
1.415535 -0.009032 0
1.425312 0.007198 0
1.427105 0.028234 0
1.420070 0.050676 0
1.404978 0.071814 0
1.383294 0.089871 0
1.356563 0.103853 0
1.326228 0.113238 0
1.293642 0.117752 0
1.260119 0.117264 0
1.226954 0.111756 0
1.195403 0.101323 0
1.166632 0.086156 0
1.141662 0.066518 0
1.121251 0.042712 0
1.105624 0.015064 0
1.094337 -0.015832 0
1.087364 -0.048271 0
1.085851 -0.079107 0
1.091264 -0.104749 0
1.105689 -0.121774 0
1.130607 -0.126721 0
1.165338 -0.116540 0
1.206262 -0.090175 0
1.246911 -0.050516 0
1.279130 -0.005453 0
1.296372 0.036143 0
1.299142 0.070026 0
1.290515 0.095559 0
1.273381 0.112972 0
1.250297 0.122948 0
1.223418 0.126325 0
1.194496 0.123934 0
1.164917 0.116536 0
1.135754 0.104846 0
1.107810 0.089611 0
1.081604 0.071708 0
1.057263 0.052195 0
1.034407 0.032219 0
1.012246 0.012700 0
0.990209 -0.006144 0
0.968864 -0.024828 0
0.950666 -0.044030 0
0.939222 -0.064049 0
0.937338 -0.084025 0
0.945949 -0.101512 0
0.964273 -0.113159 0
0.990511 -0.115806 0
1.022408 -0.107319 0
1.057486 -0.087113 0
1.093027 -0.056494 0
1.125848 -0.019048 0
1.151902 0.019115 0
1.168748 0.052772 0
1.176642 0.079603 0
1.176451 0.098403 0
1.169333 0.108700 0
1.156527 0.110741 0
1.139258 0.105470 0
1.118707 0.094413 0
1.096000 0.079483 0
1.072129 0.062707 0
1.047848 0.045917 0
1.023650 0.030424 0
0.999993 0.016738 0
0.977713 0.004429 0
0.958120 -0.007679 0
0.942853 -0.020761 0
0.933556 -0.035278 0
0.931235 -0.050702 0
0.935933 -0.065608 0
0.946909 -0.078148 0
0.962994 -0.086583 0
0.982875 -0.089638 0
1.005239 -0.086691 0
1.028799 -0.077890 0
1.052259 -0.064261 0
1.074187 -0.047737 0
1.092914 -0.031328 0
1.104564 -0.021252 0
1.000000 -0.000018 0
1.001212 -0.024678 0
1.005072 -0.051223 0
1.012574 -0.081719 0
1.025866 -0.118156 0
1.048994 -0.161859 0
1.088987 -0.211297 0
1.155517 -0.263204 0
1.271027 -0.274832 0
1.343076 -0.231097 0
1.375255 -0.174557 0
1.388484 -0.124044 0
1.391922 -0.081790 0
1.388084 -0.047607 0
1.378480 -0.022081 0
1.364362 -0.005811 0
1.348085 0.000996 0
1.332772 -0.001453 0
1.321642 -0.011746 0
1.319222 -0.024917 0
1.329402 -0.031932 0
1.349614 -0.024515 0
1.370918 -0.001980 0
1.382285 0.028822 0
1.381395 0.060833 0
1.370411 0.090028 0
1.351783 0.114336 0
1.327408 0.132927 0
1.298707 0.145476 0
1.266910 0.151811 0
1.233237 0.151834 0
1.198951 0.145552 0
1.165294 0.133129 0
1.133354 0.114901 0
1.103922 0.091417 0
1.077295 0.063595 0
1.052763 0.032806 0
1.028064 -0.000075 0
1.000857 -0.034972 0
0.973757 -0.070570 0
0.955010 -0.104415 0
0.951617 -0.133287 0
0.966194 -0.151920 0
0.997490 -0.154180 0
1.041783 -0.135709 0
1.093478 -0.096306 0
1.145030 -0.041636 0
1.186939 0.015661 0
1.212410 0.064410 0
1.223121 0.101667 0
1.221917 0.127920 0
1.211451 0.144199 0
1.194073 0.151740 0
1.171809 0.151762 0
1.146359 0.145382 0
1.119087 0.133641 0
1.090955 0.117629 0
1.062317 0.098688 0
1.032706 0.078487 0
1.001047 0.058703 0
0.966749 0.040213 0
0.931189 0.022257 0
0.898065 0.002212 0
0.872097 -0.022764 0
0.857248 -0.052837 0
0.854852 -0.084756 0
0.863712 -0.113595 0
0.881694 -0.134642 0
0.906723 -0.144369 0
0.936985 -0.140685 0
0.970780 -0.123059 0
1.006344 -0.092671 0
1.041672 -0.052502 0
1.074102 -0.007818 0
1.099804 0.034593 0
1.117286 0.070079 0
1.126605 0.096851 0
1.128303 0.114155 0
1.123166 0.122127 0
1.112088 0.121677 0
1.095981 0.114358 0
1.075688 0.102191 0
1.051922 0.087397 0
1.025330 0.071982 0
0.996772 0.057191 0
0.967702 0.043105 0
0.940320 0.028709 0
0.917174 0.012543 0
0.900359 -0.006502 0
0.891019 -0.028328 0
0.889244 -0.051323 0
0.894231 -0.073073 0
0.904764 -0.091220 0
0.919583 -0.103908 0
0.937532 -0.109922 0
0.957554 -0.108718 0
0.978617 -0.100474 0
0.999640 -0.086136 0
1.019379 -0.067445 0
1.036356 -0.046299 0
1.047485 -0.032821 0
1.000000 -0.000021 0
1.000026 -0.026198 0
1.000224 -0.054856 0
1.001292 -0.089084 0
1.005047 -0.132697 0
1.015760 -0.190335 0
1.043150 -0.265141 0
1.107064 -0.367508 0
1.272387 -0.380013 0
1.321181 -0.277293 0
1.309646 -0.186030 0
1.292949 -0.122889 0
1.278556 -0.074416 0
1.263162 -0.035057 0
1.242179 -0.004719 0
1.214905 0.015150 0
1.184334 0.022666 0
1.154609 0.017678 0
1.129637 0.000704 0
1.113003 -0.025150 0
1.112259 -0.047724 0
1.132878 -0.050548 0
1.169507 -0.025474 0
1.206066 0.017756 0
1.226544 0.062549 0
1.232856 0.101424 0
1.229551 0.132872 0
1.218693 0.156927 0
1.201323 0.173735 0
1.178336 0.183223 0
1.150817 0.185223 0
1.120042 0.179700 0
1.087205 0.166922 0
1.052720 0.147531 0
1.015285 0.122581 0
0.972051 0.093875 0
0.921412 0.064298 0
0.866732 0.036076 0
0.815898 0.006037 0
0.777359 -0.033258 0
0.757881 -0.082607 0
0.758670 -0.132956 0
0.777328 -0.172592 0
0.810918 -0.192128 0
0.856709 -0.186161 0
0.911647 -0.153763 0
0.971629 -0.098914 0
1.030572 -0.031237 0
1.078820 0.033845 0
1.111181 0.086053 0
1.129427 0.124642 0
1.135656 0.150792 0
1.131919 0.165967 0
1.120141 0.171648 0
1.102011 0.169259 0
1.078809 0.160252 0
1.051144 0.146382 0
1.018759 0.129958 0
0.980913 0.113468 0
0.937746 0.098180 0
0.892013 0.082561 0
0.849410 0.062543 0
0.816460 0.034269 0
0.797078 -0.003210 0
0.791102 -0.046802 0
0.795759 -0.090487 0
0.808035 -0.128351 0
0.825892 -0.156168 0
0.848256 -0.171095 0
0.874523 -0.171373 0
0.904066 -0.156468 0
0.935953 -0.127383 0
0.968903 -0.086805 0
1.001272 -0.039016 0
1.030411 0.009590 0
1.053205 0.052802 0
1.068772 0.087386 0
1.076945 0.112139 0
1.077948 0.126956 0
1.072199 0.132654 0
1.060171 0.130812 0
1.042328 0.123541 0
1.019208 0.113064 0
0.991718 0.101066 0
0.961530 0.088051 0
0.931237 0.073188 0
0.903978 0.054957 0
0.882588 0.032282 0
0.868749 0.005392 0
0.862550 -0.024164 0
0.862995 -0.053914 0
0.868733 -0.081129 0
0.878518 -0.103499 0
0.891356 -0.119351 0
0.906466 -0.127609 0
0.923162 -0.127775 0
0.940725 -0.119976 0
0.958305 -0.105022 0
0.974851 -0.084452 0
0.989093 -0.059434 0
0.998747 -0.043335 0
1.000000 -0.000024 0
0.998584 -0.024905 0
0.994217 -0.052493 0
0.986735 -0.086544 0
0.976264 -0.132626 0
0.964315 -0.199962 0
0.957295 -0.302600 0
0.977558 -0.492440 0
1.138802 -0.488948 0
1.127433 -0.268354 0
1.026377 -0.146324 0
0.972595 -0.092953 0
0.945453 -0.052002 0
0.923737 -0.011227 0
0.889343 0.026179 0
0.842522 0.052035 0
0.787445 0.061293 0
0.731490 0.053245 0
0.685540 0.029860 0
0.660819 -0.007539 0
0.667309 -0.051807 0
0.705842 -0.081764 0
0.769041 -0.075170 0
0.846441 -0.028217 0
0.917993 0.034042 0
0.967659 0.087019 0
0.998811 0.128497 0
1.016591 0.161154 0
1.022401 0.185832 0
1.017116 0.202318 0
1.001636 0.210130 0
0.976592 0.209166 0
0.941796 0.200453 0
0.896032 0.186825 0
0.838176 0.172090 0
0.769998 0.157472 0
0.698942 0.138126 0
0.637796 0.105441 0
0.599284 0.054403 0
0.587530 -0.012551 0
0.595484 -0.085725 0
0.614727 -0.152733 0
0.641084 -0.204166 0
0.674134 -0.233559 0
0.714943 -0.236436 0
0.764010 -0.211226 0
0.820140 -0.160560 0
0.880256 -0.091530 0
0.938740 -0.016198 0
0.986252 0.051061 0
1.019885 0.103445 0
1.040624 0.141707 0
1.049686 0.167255 0
1.048374 0.181671 0
1.037819 0.186716 0
1.018693 0.184509 0
0.991053 0.177680 0
0.954776 0.168922 0
0.910935 0.159503 0
0.863413 0.147605 0
0.818946 0.128553 0
0.784604 0.097814 0
0.764449 0.054546 0
0.758240 0.002597 0
0.762276 -0.051515 0
0.772113 -0.101687 0
0.785008 -0.143724 0
0.799918 -0.174860 0
0.816918 -0.192998 0
0.836560 -0.196492 0
0.859271 -0.184486 0
0.884927 -0.157506 0
0.912745 -0.117819 0
0.941444 -0.069324 0
0.969355 -0.017338 0
0.993578 0.031719 0
1.012100 0.073111 0
1.024091 0.104979 0
1.029203 0.126872 0
1.027348 0.139453 0
1.018598 0.144229 0
1.003227 0.143155 0
0.981961 0.138008 0
0.956320 0.129661 0
0.928775 0.117673 0
0.902430 0.100657 0
0.880237 0.077359 0
0.864172 0.047773 0
0.854879 0.013538 0
0.851848 -0.022572 0
0.853802 -0.057505 0
0.859394 -0.088594 0
0.867572 -0.113839 0
0.877630 -0.131854 0
0.889120 -0.141725 0
0.901714 -0.142974 0
0.915036 -0.135613 0
0.928529 -0.120259 0
0.941379 -0.098229 0
0.952532 -0.070191 0
0.960227 -0.052128 0
1.000000 -0.000027 0
0.997181 -0.020419 0
0.988304 -0.043011 0
0.972001 -0.071133 0
0.945601 -0.110279 0
0.904316 -0.171367 0
0.839364 -0.278383 0
0.735198 -0.549014 0
0.551052 -0.529887 0
0.000240 -0.164866 0
0.404592 -0.031190 0
0.338739 -0.041965 0
0.339726 -0.025557 0
0.350932 0.021056 0
0.338140 0.076498 0
0.297268 0.117050 0
0.242379 0.133699 0
0.189716 0.119582 0
0.157383 0.071374 0
0.162642 -0.006919 0
0.204188 -0.092748 0
0.269031 -0.152282 0
0.349079 -0.166074 0
0.444648 -0.131197 0
0.550431 -0.058670 0
0.646147 0.020605 0
0.717068 0.083939 0
0.765409 0.133335 0
0.795040 0.173210 0
0.807049 0.203988 0
0.801833 0.225749 0
0.779220 0.239542 0
0.739013 0.247484 0
0.682857 0.251154 0
0.617162 0.248618 0
0.554320 0.233111 0
0.508690 0.196502 0
0.489019 0.135736 0
0.494384 0.056306 0
0.516144 -0.029455 0
0.542095 -0.109802 0
0.566064 -0.178555 0
0.587592 -0.231998 0
0.609435 -0.265986 0
0.635727 -0.276035 0
0.670061 -0.258959 0
0.713722 -0.215159 0
0.765079 -0.149836 0
0.820301 -0.072151 0
0.872760 0.004908 0
0.914623 0.070271 0
0.944433 0.120991 0
0.962288 0.158217 0
0.968577 0.183516 0
0.963645 0.198941 0
0.947674 0.207020 0
0.921041 0.210302 0
0.885381 0.210079 0
0.844824 0.204834 0
0.805988 0.190172 0
0.775786 0.161374 0
0.758308 0.117044 0
0.753424 0.060635 0
0.757991 -0.001034 0
0.767754 -0.060672 0
0.779206 -0.113216 0
0.790397 -0.156153 0
0.800784 -0.188076 0
0.810955 -0.207734 0
0.822229 -0.213723 0
0.836045 -0.204832 0
0.853281 -0.180855 0
0.873853 -0.143320 0
0.896783 -0.095624 0
0.920555 -0.042543 0
0.943111 0.010059 0
0.961800 0.056875 0
0.975201 0.095038 0
0.982469 0.123700 0
0.983128 0.143260 0
0.977034 0.154935 0
0.964535 0.160179 0
0.946733 0.159972 0
0.925655 0.154254 0
0.904048 0.141943 0
0.884730 0.121729 0
0.869803 0.093218 0
0.860198 0.057643 0
0.855768 0.017720 0
0.855707 -0.023082 0
0.858838 -0.061456 0
0.864020 -0.094894 0
0.870395 -0.121730 0
0.877449 -0.140893 0
0.884981 -0.151687 0
0.892991 -0.153685 0
0.901496 -0.146785 0
0.910336 -0.131359 0
0.919038 -0.108449 0
0.926817 -0.078275 0
0.932238 -0.058830 0
1.000000 -0.000027 0
0.996216 -0.013214 0
0.984247 -0.027316 0
0.961901 -0.043844 0
0.924566 -0.064943 0
0.863000 -0.093725 0
0.757501 -0.133481 0
0.564661 -0.204127 0
0.072738 -0.000496 0
-0.534732 0.126843 0
0.000000 -0.000055 0
-0.029931 -0.038561 0
-0.049255 -0.064192 0
-0.062439 -0.009640 0
-0.074948 0.079844 0
-0.096648 0.147796 0
-0.121822 0.168845 0
-0.134899 0.138241 0
-0.120135 0.056933 0
-0.075498 -0.054345 0
-0.020688 -0.158197 0
0.037078 -0.226656 0
0.101209 -0.250789 0
0.176559 -0.229571 0
0.266352 -0.167459 0
0.365771 -0.079619 0
0.455377 0.009233 0
0.521741 0.083181 0
0.565604 0.144192 0
0.588526 0.195525 0
0.590922 0.237961 0
0.573752 0.271988 0
0.540533 0.296819 0
0.499274 0.308679 0
0.462318 0.300629 0
0.442262 0.265946 0
0.445839 0.203430 0
0.470812 0.119749 0
0.508349 0.027280 0
0.545630 -0.060260 0
0.575446 -0.135642 0
0.595835 -0.198228 0
0.607506 -0.247536 0
0.613673 -0.281693 0
0.619751 -0.297062 0
0.632003 -0.289220 0
0.655105 -0.255578 0
0.689998 -0.198109 0
0.733738 -0.123878 0
0.781074 -0.043261 0
0.824081 0.031772 0
0.857263 0.094043 0
0.879337 0.143112 0
0.889827 0.180315 0
0.888589 0.207620 0
0.875995 0.227115 0
0.853643 0.239976 0
0.825223 0.245142 0
0.796586 0.238899 0
0.774132 0.216647 0
0.762174 0.176236 0
0.761322 0.120179 0