# vtk DataFile Version 2.0
generated by CFD-lab course output (written by Tobias Neckel) 
ASCII

DATASET STRUCTURED_GRID
DIMENSIONS  101 21 1 
POINTS 2121 float

0.000000 0.000000 0
0.100000 0.000000 0
0.200000 0.000000 0
0.300000 0.000000 0
0.400000 0.000000 0
0.500000 0.000000 0
0.600000 0.000000 0
0.700000 0.000000 0
0.800000 0.000000 0
0.900000 0.000000 0
1.000000 0.000000 0
1.100000 0.000000 0
1.200000 0.000000 0
1.300000 0.000000 0
1.400000 0.000000 0
1.500000 0.000000 0
1.600000 0.000000 0
1.700000 0.000000 0
1.800000 0.000000 0
1.900000 0.000000 0
2.000000 0.000000 0
2.100000 0.000000 0
2.200000 0.000000 0
2.300000 0.000000 0
2.400000 0.000000 0
2.500000 0.000000 0
2.600000 0.000000 0
2.700000 0.000000 0
2.800000 0.000000 0
2.900000 0.000000 0
3.000000 0.000000 0
3.100000 0.000000 0
3.200000 0.000000 0
3.300000 0.000000 0
3.400000 0.000000 0
3.500000 0.000000 0
3.600000 0.000000 0
3.700000 0.000000 0
3.800000 0.000000 0
3.900000 0.000000 0
4.000000 0.000000 0
4.100000 0.000000 0
4.200000 0.000000 0
4.300000 0.000000 0
4.400000 0.000000 0
4.500000 0.000000 0
4.600000 0.000000 0
4.700000 0.000000 0
4.800000 0.000000 0
4.900000 0.000000 0
5.000000 0.000000 0
5.100000 0.000000 0
5.200000 0.000000 0
5.300000 0.000000 0
5.400000 0.000000 0
5.500000 0.000000 0
5.600000 0.000000 0
5.700000 0.000000 0
5.800000 0.000000 0
5.900000 0.000000 0
6.000000 0.000000 0
6.100000 0.000000 0
6.200000 0.000000 0
6.300000 0.000000 0
6.400000 0.000000 0
6.500000 0.000000 0
6.600000 0.000000 0
6.700000 0.000000 0
6.800000 0.000000 0
6.900000 0.000000 0
7.000000 0.000000 0
7.100000 0.000000 0
7.200000 0.000000 0
7.300000 0.000000 0
7.400000 0.000000 0
7.500000 0.000000 0
7.600000 0.000000 0
7.700000 0.000000 0
7.800000 0.000000 0
7.900000 0.000000 0
8.000000 0.000000 0
8.100000 0.000000 0
8.200000 0.000000 0
8.300000 0.000000 0
8.400000 0.000000 0
8.500000 0.000000 0
8.600000 0.000000 0
8.700000 0.000000 0
8.800000 0.000000 0
8.900000 0.000000 0
9.000000 0.000000 0
9.100000 0.000000 0
9.200000 0.000000 0
9.300000 0.000000 0
9.400000 0.000000 0
9.500000 0.000000 0
9.600000 0.000000 0
9.700000 0.000000 0
9.800000 0.000000 0
9.900000 0.000000 0
10.000000 0.000000 0
0.000000 0.100000 0
0.100000 0.100000 0
0.200000 0.100000 0
0.300000 0.100000 0
0.400000 0.100000 0
0.500000 0.100000 0
0.600000 0.100000 0
0.700000 0.100000 0
0.800000 0.100000 0
0.900000 0.100000 0
1.000000 0.100000 0
1.100000 0.100000 0
1.200000 0.100000 0
1.300000 0.100000 0
1.400000 0.100000 0
1.500000 0.100000 0
1.600000 0.100000 0
1.700000 0.100000 0
1.800000 0.100000 0
1.900000 0.100000 0
2.000000 0.100000 0
2.100000 0.100000 0
2.200000 0.100000 0
2.300000 0.100000 0
2.400000 0.100000 0
2.500000 0.100000 0
2.600000 0.100000 0
2.700000 0.100000 0
2.800000 0.100000 0
2.900000 0.100000 0
3.000000 0.100000 0
3.100000 0.100000 0
3.200000 0.100000 0
3.300000 0.100000 0
3.400000 0.100000 0
3.500000 0.100000 0
3.600000 0.100000 0
3.700000 0.100000 0
3.800000 0.100000 0
3.900000 0.100000 0
4.000000 0.100000 0
4.100000 0.100000 0
4.200000 0.100000 0
4.300000 0.100000 0
4.400000 0.100000 0
4.500000 0.100000 0
4.600000 0.100000 0
4.700000 0.100000 0
4.800000 0.100000 0
4.900000 0.100000 0
5.000000 0.100000 0
5.100000 0.100000 0
5.200000 0.100000 0
5.300000 0.100000 0
5.400000 0.100000 0
5.500000 0.100000 0
5.600000 0.100000 0
5.700000 0.100000 0
5.800000 0.100000 0
5.900000 0.100000 0
6.000000 0.100000 0
6.100000 0.100000 0
6.200000 0.100000 0
6.300000 0.100000 0
6.400000 0.100000 0
6.500000 0.100000 0
6.600000 0.100000 0
6.700000 0.100000 0
6.800000 0.100000 0
6.900000 0.100000 0
7.000000 0.100000 0
7.100000 0.100000 0
7.200000 0.100000 0
7.300000 0.100000 0
7.400000 0.100000 0
7.500000 0.100000 0
7.600000 0.100000 0
7.700000 0.100000 0
7.800000 0.100000 0
7.900000 0.100000 0
8.000000 0.100000 0
8.100000 0.100000 0
8.200000 0.100000 0
8.300000 0.100000 0
8.400000 0.100000 0
8.500000 0.100000 0
8.600000 0.100000 0
8.700000 0.100000 0
8.800000 0.100000 0
8.900000 0.100000 0
9.000000 0.100000 0
9.100000 0.100000 0
9.200000 0.100000 0
9.300000 0.100000 0
9.400000 0.100000 0
9.500000 0.100000 0
9.600000 0.100000 0
9.700000 0.100000 0
9.800000 0.100000 0
9.900000 0.100000 0
10.000000 0.100000 0
0.000000 0.200000 0
0.100000 0.200000 0
0.200000 0.200000 0
0.300000 0.200000 0
0.400000 0.200000 0
0.500000 0.200000 0
0.600000 0.200000 0
0.700000 0.200000 0
0.800000 0.200000 0
0.900000 0.200000 0
1.000000 0.200000 0
1.100000 0.200000 0
1.200000 0.200000 0
1.300000 0.200000 0
1.400000 0.200000 0
1.500000 0.200000 0
1.600000 0.200000 0
1.700000 0.200000 0
1.800000 0.200000 0
1.900000 0.200000 0
2.000000 0.200000 0
2.100000 0.200000 0
2.200000 0.200000 0
2.300000 0.200000 0
2.400000 0.200000 0
2.500000 0.200000 0
2.600000 0.200000 0
2.700000 0.200000 0
2.800000 0.200000 0
2.900000 0.200000 0
3.000000 0.200000 0
3.100000 0.200000 0
3.200000 0.200000 0
3.300000 0.200000 0
3.400000 0.200000 0
3.500000 0.200000 0
3.600000 0.200000 0
3.700000 0.200000 0
3.800000 0.200000 0
3.900000 0.200000 0
4.000000 0.200000 0
4.100000 0.200000 0
4.200000 0.200000 0
4.300000 0.200000 0
4.400000 0.200000 0
4.500000 0.200000 0
4.600000 0.200000 0
4.700000 0.200000 0
4.800000 0.200000 0
4.900000 0.200000 0
5.000000 0.200000 0
5.100000 0.200000 0
5.200000 0.200000 0
5.300000 0.200000 0
5.400000 0.200000 0
5.500000 0.200000 0
5.600000 0.200000 0
5.700000 0.200000 0
5.800000 0.200000 0
5.900000 0.200000 0
6.000000 0.200000 0
6.100000 0.200000 0
6.200000 0.200000 0
6.300000 0.200000 0
6.400000 0.200000 0
6.500000 0.200000 0
6.600000 0.200000 0
6.700000 0.200000 0
6.800000 0.200000 0
6.900000 0.200000 0
7.000000 0.200000 0
7.100000 0.200000 0
7.200000 0.200000 0
7.300000 0.200000 0
7.400000 0.200000 0
7.500000 0.200000 0
7.600000 0.200000 0
7.700000 0.200000 0
7.800000 0.200000 0
7.900000 0.200000 0
8.000000 0.200000 0
8.100000 0.200000 0
8.200000 0.200000 0
8.300000 0.200000 0
8.400000 0.200000 0
8.500000 0.200000 0
8.600000 0.200000 0
8.700000 0.200000 0
8.800000 0.200000 0
8.900000 0.200000 0
9.000000 0.200000 0
9.100000 0.200000 0
9.200000 0.200000 0
9.300000 0.200000 0
9.400000 0.200000 0
9.500000 0.200000 0
9.600000 0.200000 0
9.700000 0.200000 0
9.800000 0.200000 0
9.900000 0.200000 0
10.000000 0.200000 0
0.000000 0.300000 0
0.100000 0.300000 0
0.200000 0.300000 0
0.300000 0.300000 0
0.400000 0.300000 0
0.500000 0.300000 0
0.600000 0.300000 0
0.700000 0.300000 0
0.800000 0.300000 0
0.900000 0.300000 0
1.000000 0.300000 0
1.100000 0.300000 0
1.200000 0.300000 0
1.300000 0.300000 0
1.400000 0.300000 0
1.500000 0.300000 0
1.600000 0.300000 0
1.700000 0.300000 0
1.800000 0.300000 0
1.900000 0.300000 0
2.000000 0.300000 0
2.100000 0.300000 0
2.200000 0.300000 0
2.300000 0.300000 0
2.400000 0.300000 0
2.500000 0.300000 0
2.600000 0.300000 0
2.700000 0.300000 0
2.800000 0.300000 0
2.900000 0.300000 0
3.000000 0.300000 0
3.100000 0.300000 0
3.200000 0.300000 0
3.300000 0.300000 0
3.400000 0.300000 0
3.500000 0.300000 0
3.600000 0.300000 0
3.700000 0.300000 0
3.800000 0.300000 0
3.900000 0.300000 0
4.000000 0.300000 0
4.100000 0.300000 0
4.200000 0.300000 0
4.300000 0.300000 0
4.400000 0.300000 0
4.500000 0.300000 0
4.600000 0.300000 0
4.700000 0.300000 0
4.800000 0.300000 0
4.900000 0.300000 0
5.000000 0.300000 0
5.100000 0.300000 0
5.200000 0.300000 0
5.300000 0.300000 0
5.400000 0.300000 0
5.500000 0.300000 0
5.600000 0.300000 0
5.700000 0.300000 0
5.800000 0.300000 0
5.900000 0.300000 0
6.000000 0.300000 0
6.100000 0.300000 0
6.200000 0.300000 0
6.300000 0.300000 0
6.400000 0.300000 0
6.500000 0.300000 0
6.600000 0.300000 0
6.700000 0.300000 0
6.800000 0.300000 0
6.900000 0.300000 0
7.000000 0.300000 0
7.100000 0.300000 0
7.200000 0.300000 0
7.300000 0.300000 0
7.400000 0.300000 0
7.500000 0.300000 0
7.600000 0.300000 0
7.700000 0.300000 0
7.800000 0.300000 0
7.900000 0.300000 0
8.000000 0.300000 0
8.100000 0.300000 0
8.200000 0.300000 0
8.300000 0.300000 0
8.400000 0.300000 0
8.500000 0.300000 0
8.600000 0.300000 0
8.700000 0.300000 0
8.800000 0.300000 0
8.900000 0.300000 0
9.000000 0.300000 0
9.100000 0.300000 0
9.200000 0.300000 0
9.300000 0.300000 0
9.400000 0.300000 0
9.500000 0.300000 0
9.600000 0.300000 0
9.700000 0.300000 0
9.800000 0.300000 0
9.900000 0.300000 0
10.000000 0.300000 0
0.000000 0.400000 0
0.100000 0.400000 0
0.200000 0.400000 0
0.300000 0.400000 0
0.400000 0.400000 0
0.500000 0.400000 0
0.600000 0.400000 0
0.700000 0.400000 0
0.800000 0.400000 0
0.900000 0.400000 0
1.000000 0.400000 0
1.100000 0.400000 0
1.200000 0.400000 0
1.300000 0.400000 0
1.400000 0.400000 0
1.500000 0.400000 0
1.600000 0.400000 0
1.700000 0.400000 0
1.800000 0.400000 0
1.900000 0.400000 0
2.000000 0.400000 0
2.100000 0.400000 0
2.200000 0.400000 0
2.300000 0.400000 0
2.400000 0.400000 0
2.500000 0.400000 0
2.600000 0.400000 0
2.700000 0.400000 0
2.800000 0.400000 0
2.900000 0.400000 0
3.000000 0.400000 0
3.100000 0.400000 0
3.200000 0.400000 0
3.300000 0.400000 0
3.400000 0.400000 0
3.500000 0.400000 0
3.600000 0.400000 0
3.700000 0.400000 0
3.800000 0.400000 0
3.900000 0.400000 0
4.000000 0.400000 0
4.100000 0.400000 0
4.200000 0.400000 0
4.300000 0.400000 0
4.400000 0.400000 0
4.500000 0.400000 0
4.600000 0.400000 0
4.700000 0.400000 0
4.800000 0.400000 0
4.900000 0.400000 0
5.000000 0.400000 0
5.100000 0.400000 0
5.200000 0.400000 0
5.300000 0.400000 0
5.400000 0.400000 0
5.500000 0.400000 0
5.600000 0.400000 0
5.700000 0.400000 0
5.800000 0.400000 0
5.900000 0.400000 0
6.000000 0.400000 0
6.100000 0.400000 0
6.200000 0.400000 0
6.300000 0.400000 0
6.400000 0.400000 0
6.500000 0.400000 0
6.600000 0.400000 0
6.700000 0.400000 0
6.800000 0.400000 0
6.900000 0.400000 0
7.000000 0.400000 0
7.100000 0.400000 0
7.200000 0.400000 0
7.300000 0.400000 0
7.400000 0.400000 0
7.500000 0.400000 0
7.600000 0.400000 0
7.700000 0.400000 0
7.800000 0.400000 0
7.900000 0.400000 0
8.000000 0.400000 0
8.100000 0.400000 0
8.200000 0.400000 0
8.300000 0.400000 0
8.400000 0.400000 0
8.500000 0.400000 0
8.600000 0.400000 0
[...]
POINT_DATA 2121 

VECTORS velocity float
0.500000 0.000000 0
0.000003 0.000000 0
0.000012 0.000000 0
0.000027 0.000000 0
0.000049 0.000000 0
0.000077 0.000000 0
0.000108 0.000000 0
0.000140 0.000000 0
0.000168 0.000000 0
0.000185 0.000000 0
0.000182 0.000000 0
0.000151 0.000000 0
0.000084 0.000000 0
-0.000029 0.000000 0
-0.000192 0.000000 0
-0.000409 0.000000 0
-0.000672 0.000000 0
-0.000964 0.000000 0
-0.001252 0.000000 0
-0.001487 0.000000 0
-0.001603 0.000000 0
-0.001537 0.000000 0
-0.001260 0.000000 0
-0.000781 0.000000 0
-0.000158 0.000000 0
0.000533 0.000000 0
0.001217 0.000000 0
0.001832 0.000000 0
0.002336 0.000000 0
0.002698 0.000000 0
0.002901 0.000000 0
0.002932 0.000000 0
0.002787 0.000000 0
0.002460 0.000000 0
0.001952 0.000000 0
0.001261 0.000000 0
0.000382 0.000000 0
-0.000691 0.000000 0
-0.001911 0.000000 0
-0.003158 0.000000 0
-0.004307 0.000000 0
-0.005190 0.000000 0
-0.005633 0.000000 0
-0.005495 0.000000 0
-0.004729 0.000000 0
-0.003427 0.000000 0
-0.001817 0.000000 0
-0.000182 0.000000 0
0.001337 0.000000 0
0.002654 0.000000 0
0.003706 0.000000 0
0.004465 0.000000 0
0.004927 0.000000 0
0.005106 0.000000 0
0.005027 0.000000 0
0.004710 0.000000 0
0.004172 0.000000 0
0.003420 0.000000 0
0.002462 0.000000 0
0.001313 0.000000 0
0.000028 0.000000 0
-0.001237 0.000000 0
-0.002398 0.000000 0
-0.003439 0.000000 0
-0.004355 0.000000 0
-0.005130 0.000000 0
-0.005727 0.000000 0
-0.006075 0.000000 0
-0.006071 0.000000 0
-0.005604 0.000000 0
-0.004606 0.000000 0
-0.003123 0.000000 0
-0.001357 0.000000 0
0.000436 0.000000 0
0.002144 0.000000 0
0.003666 0.000000 0
0.004902 0.000000 0
0.005760 0.000000 0
0.006174 0.000000 0
0.006104 0.000000 0
0.005554 0.000000 0
0.004574 0.000000 0
0.003271 0.000000 0
0.001790 0.000000 0
0.000306 0.000000 0
-0.000978 0.000000 0
-0.001963 0.000000 0
-0.002721 0.000000 0
-0.003335 0.000000 0
-0.003874 0.000000 0
-0.004384 0.000000 0
-0.004884 0.000000 0
-0.005358 0.000000 0
-0.005761 0.000000 0
-0.006029 0.000000 0
-0.006093 0.000000 0
-0.005902 0.000000 0
-0.005447 0.000000 0
-0.004789 0.000000 0
-0.004064 0.000000 0
-0.003517 0.000000 0
1.000000 -0.000003 0
1.002508 -0.004911 0
1.010698 -0.010522 0
1.024815 -0.016543 0
1.045224 -0.022766 0
1.072119 -0.028804 0
1.105205 -0.033980 0
1.143293 -0.037368 0
1.184000 -0.038041 0
1.223679 -0.035683 0
1.259023 -0.030890 0
1.288043 -0.024729 0
1.310056 -0.018229 0
1.325336 -0.012184 0
1.334786 -0.007127 0
1.339701 -0.003369 0
1.341565 -0.001024 0
1.341882 -0.000017 0
1.341994 -0.000079 0
1.342882 -0.000733 0
1.344923 -0.001335 0
1.347695 -0.001212 0
1.349994 0.000132 0
1.350211 0.002850 0
1.346844 0.006714 0
1.338885 0.011258 0
1.325932 0.015952 0
1.308148 0.020325 0
1.286124 0.024017 0
1.260743 0.026780 0
1.233070 0.028455 0
1.204280 0.028947 0
1.175606 0.028202 0
1.148312 0.026197 0
1.123670 0.022920 0
1.102940 0.018357 0
1.087353 0.012462 0
1.078087 0.005204 0
1.076205 -0.003127 0
1.082545 -0.011845 0
1.097440 -0.020072 0
1.120328 -0.026764 0
1.149486 -0.030815 0
1.182030 -0.031322 0
1.214197 -0.027916 0
1.241921 -0.021012 0
1.261666 -0.011836 0
1.271289 -0.001956 0
1.270426 0.007509 0
1.259937 0.015950 0
1.241254 0.022940 0
1.216126 0.028231 0
1.186427 0.031740 0
1.154010 0.033500 0
1.120632 0.033598 0
1.087925 0.032131 0
1.057392 0.029173 0
1.030413 0.024761 0
1.008208 0.018931 0
0.991763 0.011801 0
0.981728 0.003773 0
0.978386 -0.004329 0
0.981698 -0.011792 0
0.991345 -0.018374 0
1.006846 -0.024008 0
1.027612 -0.028619 0
1.052954 -0.032042 0
1.082002 -0.033949 0
1.113521 -0.033841 0
1.145705 -0.031166 0
1.176112 -0.025575 0
1.201829 -0.017283 0
1.219901 -0.007272 0
1.228019 0.003175 0
1.225374 0.013191 0
1.212640 0.022217 0
1.191143 0.029696 0
1.162733 0.035112 0
1.129682 0.038047 0
1.094536 0.038231 0
1.059930 0.035599 0
1.028339 0.030369 0
1.001787 0.023077 0
0.981574 0.014554 0
0.968136 0.005853 0
0.961153 -0.001837 0
0.959872 -0.007821 0
0.963300 -0.012235 0
0.970520 -0.015529 0
0.980889 -0.018119 0
0.994046 -0.020299 0
1.009837 -0.022200 0
1.028160 -0.023768 0
1.048776 -0.024781 0
1.071148 -0.024904 0
1.094366 -0.023788 0
1.117178 -0.021205 0
1.138137 -0.017217 0
1.155859 -0.012296 0
1.169343 -0.008975 0
1.179230 -0.007716 0
1.000000 -0.000005 0
1.002839 -0.010966 0
1.011480 -0.022477 0
1.026144 -0.034695 0
1.047429 -0.047473 0
1.075968 -0.060150 0
1.112022 -0.071343 0
1.154784 -0.078964 0
1.201781 -0.080556 0
1.247167 -0.075192 0
1.286289 -0.064533 0
1.317154 -0.051202 0
1.339589 -0.037462 0
1.354359 -0.024899 0
1.362745 -0.014534 0
1.366336 -0.006948 0
1.366874 -0.002349 0
1.366113 -0.000598 0
1.365683 -0.001169 0
1.366891 -0.003098 0
1.370388 -0.004982 0
1.375725 -0.005240 0
1.381218 -0.002685 0
1.384535 0.002981 0
1.383673 0.011157 0
1.377455 0.020743 0
1.365537 0.030568 0
1.348251 0.039640 0
1.326372 0.047237 0
1.300921 0.052885 0
1.273047 0.056294 0
1.243961 0.057296 0
1.214903 0.055799 0
1.187119 0.051766 0
1.161840 0.045203 0
1.140255 0.036148 0
1.123476 0.024684 0
1.112514 0.010980 0
1.108317 -0.004628 0
1.111907 -0.021405 0
1.123995 -0.037952 0
1.144499 -0.052214 0
1.172305 -0.061870 0
1.205294 -0.064880 0
1.240355 -0.060060 0
1.273456 -0.047638 0
1.300107 -0.029537 0
1.316476 -0.008928 0
1.320891 0.011183 0
1.314324 0.029003 0
1.298593 0.043642 0
1.275764 0.054658 0
1.247928 0.061947 0
1.217060 0.065626 0
1.184951 0.065916 0
1.153181 0.063071 0
1.123116 0.057343 0
1.095884 0.049016 0
1.072338 0.038481 0
1.053007 0.026311 0
1.038108 0.013208 0
1.027731 -0.000139 0
1.022112 -0.013127 0
1.021382 -0.025317 0
1.025562 -0.036436 0
1.034680 -0.046276 0
1.048861 -0.054559 0
1.068225 -0.060736 0
1.092562 -0.063871 0
1.120993 -0.062760 0
1.151793 -0.056292 0
1.182405 -0.043957 0
1.209565 -0.026359 0
1.229678 -0.005642 0
1.239909 0.015210 0
1.239748 0.034062 0
1.230253 0.049739 0
1.213032 0.061292 0
1.190065 0.068028 0
1.163505 0.069583 0
1.135476 0.066028 0
1.107871 0.057974 0
1.082171 0.046597 0
1.059351 0.033483 0
1.039901 0.020252 0
1.024010 0.008095 0
1.011865 -0.002316 0
1.003450 -0.010816 0
0.998558 -0.017758 0
0.997055 -0.023695 0
0.999015 -0.029117 0
1.004689 -0.034283 0
1.014334 -0.039108 0
1.027969 -0.043157 0
1.045216 -0.045758 0
1.065265 -0.046198 0
1.086954 -0.043940 0
1.108891 -0.038850 0
1.129565 -0.031374 0
1.147512 -0.023540 0
1.159727 -0.018986 0
1.000000 -0.000008 0
1.002460 -0.016561 0
1.010311 -0.033896 0
1.024060 -0.052561 0
1.044811 -0.072660 0
1.074059 -0.093466 0
1.113292 -0.112865 0
1.162850 -0.127197 0
1.221229 -0.130495 0
1.275726 -0.120260 0
1.319162 -0.100947 0
1.350612 -0.078099 0
1.371392 -0.055505 0
1.383199 -0.035410 0
1.387866 -0.019175 0
1.387389 -0.007568 0
1.383835 -0.000871 0
1.379314 0.001104 0
1.375899 -0.000927 0
1.375499 -0.005508 0
1.379482 -0.010239 0
1.387628 -0.012112 0
1.397492 -0.008748 0
1.405163 0.000325 0
1.407351 0.013724 0
1.402637 0.029324 0
1.390893 0.045086 0
1.372850 0.059420 0
1.349644 0.071277 0
1.322535 0.080035 0
1.292800 0.085345 0
1.261695 0.087021 0
1.230461 0.084975 0
1.200317 0.079190 0
1.172451 0.069714 0
1.147993 0.056651 0
1.127978 0.040132 0
1.113318 0.020293 0
1.104804 -0.002589 0
1.103193 -0.027592 0
1.109131 -0.052734 0
1.122803 -0.075145 0
1.143967 -0.091679 0
1.172117 -0.099442 0
1.206001 -0.096148 0
1.242836 -0.080833 0
1.277969 -0.054927 0
1.305572 -0.022810 0
1.320648 0.009592 0
1.322206 0.038178 0
1.312496 0.061430 0
1.294062 0.078826 0
1.269381 0.090374 0
1.240693 0.096407 0
1.209920 0.097407 0
1.178655 0.093896 0
1.148171 0.086400 0
1.119444 0.075469 0
1.093190 0.061738 0
1.069892 0.045961 0
1.049811 0.028980 0
1.032949 0.011598 0
1.019071 -0.005513 0
1.007993 -0.021894 0
1.000036 -0.037375 0
0.996167 -0.051988 0
0.997779 -0.065657 0
1.006245 -0.077720 0
1.022194 -0.086679 0
1.045139 -0.090467 0
1.073567 -0.087057 0
1.105203 -0.075125 0
1.137239 -0.054615 0
1.166446 -0.027238 0
1.189230 0.003051 0
1.202707 0.031803 0
1.206756 0.056342 0
1.202348 0.075230 0
1.190894 0.087505 0
1.173998 0.092750 0
1.153270 0.091164 0
1.130185 0.083605 0
1.106035 0.071528 0
1.081932 0.056753 0
1.058817 0.041124 0
1.037392 0.026129 0
1.018030 0.012669 0
1.000995 0.001002 0
0.986586 -0.009203 0
0.975332 -0.018645 0
0.968090 -0.028004 0
0.965744 -0.037589 0
0.968857 -0.047118 0
0.977418 -0.055733 0
0.990812 -0.062270 0
1.007967 -0.065596 0
1.027536 -0.064901 0
1.048049 -0.059898 0
1.067975 -0.050986 0
1.085781 -0.039206 0
1.098284 -0.031629 0
1.000000 -0.000011 0
1.001938 -0.021446 0
1.008344 -0.044146 0
1.020012 -0.069265 0
1.038671 -0.097542 0
1.067076 -0.128701 0
1.108976 -0.160204 0
1.167650 -0.186970 0
1.247221 -0.193501 0
1.313751 -0.173195 0
1.358655 -0.139488 0
1.386532 -0.103502 0
1.402067 -0.070120 0
1.407996 -0.041444 0
1.406439 -0.018794 0
1.399496 -0.002986 0
1.389303 0.005655 0
1.378386 0.007268 0
1.369332 0.002576 0
1.364596 -0.006751 0
1.366893 -0.017181 0
1.377373 -0.023320 0
1.393282 -0.020290 0
1.408421 -0.006948 0
1.416257 0.013614 0
1.414469 0.037131 0
1.403549 0.060284 0
1.385027 0.080819 0
1.360609 0.097482 0
1.331860 0.109658 0
1.300166 0.117064 0
1.266806 0.119565 0
1.233015 0.117107 0
1.200009 0.109706 0
1.168977 0.097457 0
1.141036 0.080552 0
1.117139 0.059289 0
1.097812 0.034083 0
1.082787 0.005428 0
1.071202 -0.025801 0
1.063236 -0.057632 0
1.060380 -0.087120 0
1.064797 -0.111253 0
1.079098 -0.126984 0
1.104691 -0.130849 0
1.140482 -0.119676 0
1.182555 -0.092343 0
1.224467 -0.051677 0
1.258257 -0.005520 0
1.277331 0.037085 0
1.281864 0.071716 0
1.274718 0.097703 0
1.258692 0.115247 0
1.236342 0.125017 0
1.209883 0.127884 0
1.181154 0.124751 0
1.151629 0.116484 0
1.122447 0.103927 0
1.094432 0.087964 0
1.068057 0.069620 0
1.043336 0.050080 0
1.019785 0.030532 0
0.996709 0.011759 0
0.973962 -0.006352 0
0.952730 -0.024680 0
0.935891 -0.044089 0
0.926837 -0.064707 0
0.927663 -0.085221 0
0.938539 -0.102835 0
0.958206 -0.114203 0
0.984693 -0.116426 0
1.015772 -0.107699 0
1.049133 -0.087672 0
1.082358 -0.057702 0
1.112733 -0.021121 0
1.136807 0.016466 0
1.152314 0.050027 0
1.159331 0.077084 0
1.158577 0.096308 0
1.151096 0.107137 0
1.138058 0.109772 0
1.120644 0.105140 0
1.099993 0.094780 0
1.077161 0.080631 0
1.053070 0.064723 0
1.028468 0.048812 0
1.004020 0.034011 0
0.980534 0.020558 0
0.959193 0.007836 0
0.941487 -0.005268 0
0.928902 -0.019599 0
0.922596 -0.035120 0
0.922944 -0.050851 0
0.929467 -0.065181 0
0.941102 -0.076377 0
0.956504 -0.082992 0
0.974240 -0.084092 0
0.992870 -0.079358 0
1.010946 -0.069176 0
1.027004 -0.053918 0
1.038543 -0.043832 0
1.000000 -0.000014 0
1.001111 -0.025074 0
1.005054 -0.052040 0
1.012731 -0.082958 0
1.026306 -0.119794 0
1.049841 -0.163841 0
1.090392 -0.213509 0
1.157656 -0.265512 0
1.274255 -0.276666 0
1.346973 -0.231764 0
1.379653 -0.173797 0
1.393536 -0.121581 0
1.397878 -0.077039 0
1.394654 -0.039851 0
1.384865 -0.010745 0
1.368893 0.009497 0
1.348967 0.020170 0
1.328276 0.021005 0
1.310095 0.012793 0
1.297129 -0.003139 0
1.292207 -0.023085 0
1.299774 -0.038571 0
1.319445 -0.039865 0
1.344989 -0.022720 0
1.365331 0.007606 0
1.372029 0.041963 0
1.366671 0.074458 0
1.352161 0.102290 0
1.330905 0.124374 0
1.304620 0.140408 0
1.274601 0.150329 0
1.241992 0.154103 0
1.207937 0.151702 0
1.173606 0.143158 0
1.140145 0.128617 0
1.108572 0.108419 0
1.079591 0.083287 0
1.053103 0.054575 0
1.027443 0.023951 0
0.999693 -0.008111 0
0.968847 -0.041983 0
0.940449 -0.076776 0
0.923593 -0.110467 0
0.923870 -0.139406 0
0.942067 -0.157602 0
0.975897 -0.158767 0
1.021393 -0.138981 0
1.073268 -0.098582 0
1.124667 -0.043342 0
1.166845 0.014501 0
1.193262 0.063973 0
1.205183 0.101929 0
1.205149 0.128680 0
1.195669 0.145146 0
1.179049 0.152525 0
1.157330 0.152081 0
1.132240 0.145037 0
1.105141 0.132596 0
1.076913 0.116057 0
1.047751 0.096988 0
1.017095 0.077182 0
0.984157 0.058154 0
0.949158 0.040240 0
0.914447 0.022015 0
0.884141 0.000626 0
0.862475 -0.026165 0
0.852253 -0.057499 0
0.853643 -0.089492 0
0.864959 -0.117292 0
0.884059 -0.136690 0
0.909008 -0.144693 0
0.938128 -0.139635 0
0.969846 -0.121271 0
1.002558 -0.090908 0
1.034504 -0.051468 0
1.063464 -0.007847 0
1.086214 0.033748 0
1.101428 0.068896 0
1.109052 0.095671 0
1.109512 0.113199 0
1.103489 0.121546 0
1.091779 0.121600 0
1.075193 0.114940 0
1.054494 0.103607 0
1.030404 0.089747 0
1.003756 0.075109 0
0.975776 0.060534 0
0.948304 0.045759 0
0.923679 0.029774 0
0.904172 0.011576 0
0.891275 -0.009183 0
0.885453 -0.031701 0
0.886274 -0.054059 0
0.892695 -0.073961 0
0.903443 -0.089376 0
0.917240 -0.098804 0
0.932859 -0.101336 0
0.949099 -0.096674 0
0.964734 -0.085190 0
0.978490 -0.066873 0
0.988477 -0.054725 0
1.000000 -0.000016 0
0.999925 -0.026669 0
1.000198 -0.055836 0
1.001429 -0.090588 0
1.005453 -0.134722 0
1.016570 -0.192856 0
1.044541 -0.268089 0
1.109287 -0.370904 0
1.275966 -0.382888 0
1.325251 -0.278663 0
1.314176 -0.186122 0
1.298603 -0.121797 0
1.286762 -0.071308 0
1.274602 -0.028501 0
1.255650 0.006898 0
1.228627 0.032842 0
1.195945 0.046202 0
1.161435 0.046071 0
1.129150 0.033654 0
1.102401 0.011066 0
1.083247 -0.019896 0
1.076906 -0.050628 0
1.091366 -0.065575 0
1.126024 -0.052904 0
1.169680 -0.013496 0
1.204096 0.035722 0
1.220317 0.080081 0
1.223966 0.116515 0
1.218555 0.144953 0
1.205808 0.165893 0
1.186748 0.179623 0
1.162353 0.186159 0
1.133733 0.185423 0
1.102056 0.177428 0
1.068172 0.162422 0
1.031848 0.141036 0
0.991132 0.114688 0
0.943454 0.086162 0
0.889153 0.058767 0
0.834095 0.032724 0
0.787056 0.001543 0
0.755628 -0.041936 0
0.743922 -0.094745 0
0.750807 -0.145528 0
0.773244 -0.182946 0
0.808501 -0.199072 0
0.854240 -0.189784 0
0.907761 -0.155021 0
0.965369 -0.099168 0
1.021648 -0.031580 0
1.067837 0.033308 0
1.099151 0.085745 0
1.116934 0.124690 0
1.123001 0.151048 0
1.119256 0.166153 0
1.107537 0.171491 0
1.089454 0.168604 0
1.066174 0.159183 0
1.038167 0.145284 0
1.005153 0.129368 0
0.966746 0.113605 0
0.923916 0.098399 0
0.880295 0.081399 0
0.841761 0.058595 0
0.813973 0.027222 0
0.799447 -0.012270 0
0.797020 -0.055944 0
0.803749 -0.097997 0
0.816939 -0.133321 0
0.834871 -0.158321 0
0.856620 -0.170565 0
0.881588 -0.168607 0
0.909111 -0.152172 0
0.938266 -0.122430 0
0.967858 -0.082096 0
0.996437 -0.035314 0
1.021764 0.011994 0
1.041310 0.054176 0
1.054250 0.088154 0
1.060364 0.112631 0
1.059791 0.127435 0
1.052849 0.133366 0
1.039935 0.131995 0
1.021527 0.125350 0
0.998336 0.115391 0
0.971604 0.103370 0
0.943335 0.089393 0
0.916196 0.072585 0
0.892962 0.051898 0
0.875764 0.027066 0
0.865548 -0.000950 0
0.861961 -0.030189 0
0.863923 -0.058162 0
0.870182 -0.082420 0
0.879595 -0.100992 0
0.891180 -0.112478 0
0.904057 -0.116021 0
0.917354 -0.111303 0
0.930126 -0.098636 0
0.941336 -0.077731 0
0.949468 -0.063903 0
1.000000 -0.000018 0
0.998477 -0.025441 0
0.994163 -0.053614 0
0.986805 -0.088284 0
0.976547 -0.135005 0
0.964931 -0.202998 0
0.958416 -0.306296 0
0.979446 -0.497007 0
1.141737 -0.492700 0
1.130264 -0.270045 0
1.029031 -0.147219 0
0.975551 -0.094236 0
0.951930 -0.053109 0
0.938276 -0.008810 0
0.912778 0.035161 0
0.873575 0.069133 0
0.821990 0.087292 0
0.761744 0.087729 0
0.700457 0.071758 0
0.650450 0.042694 0
0.624502 0.002340 0
0.629426 -0.046760 0
0.663339 -0.089053 0
0.721615 -0.101104 0
0.797653 -0.070537 0
0.878586 -0.008744 0
0.944454 0.054518 0
0.987189 0.103981 0
1.013691 0.142463 0
1.027218 0.172146 0
1.029049 0.193714 0
1.020220 0.207047 0
1.001632 0.211928 0
0.973676 0.208649 0
0.935716 0.198756 0
0.886178 0.185389 0
0.824331 0.171611 0
0.753694 0.156485 0
0.684378 0.133240 0
0.630486 0.093916 0
0.602502 0.036414 0
0.599769 -0.033712 0
0.612690 -0.105716 0
0.633626 -0.168798 0
0.659856 -0.215366 0
0.691859 -0.239833 0
0.730989 -0.238311 0
0.777681 -0.209781 0
0.830620 -0.157299 0
0.886782 -0.088036 0
0.941022 -0.013599 0
0.984983 0.052762 0
1.016129 0.104760 0
1.035087 0.142754 0
1.042886 0.167919 0
1.040685 0.181813 0
1.029481 0.186331 0
1.009836 0.183813 0
0.981843 0.177009 0
0.945741 0.168338 0
0.903282 0.158350 0
0.858900 0.144536 0
0.819107 0.122325 0
0.789852 0.088267 0
0.773856 0.042870 0
0.770121 -0.009283 0
0.775019 -0.061871 0
0.784838 -0.109481 0
0.797363 -0.148484 0
0.811758 -0.176440 0
0.828071 -0.191479 0
0.846701 -0.192196 0
0.867884 -0.178019 0
0.891363 -0.149724 0
0.916345 -0.109708 0
0.941659 -0.061823 0
0.965841 -0.011195 0
0.986430 0.036341 0
1.001815 0.076547 0
1.011215 0.107589 0
1.014259 0.128991 0
1.010823 0.141386 0
1.000994 0.146193 0
0.985181 0.145136 0
0.964360 0.139600 0
0.940303 0.130040 0
0.915524 0.115872 0
0.892804 0.096062 0
0.874468 0.070136 0
0.861827 0.038921 0
0.855083 0.004550 0
0.853570 -0.030146 0
0.856133 -0.062350 0
0.861635 -0.089703 0
0.869160 -0.110444 0
0.878019 -0.123336 0
0.887666 -0.127580 0
0.897581 -0.122813 0
0.907146 -0.109242 0
0.915601 -0.086285 0
0.921667 -0.071128 0
1.000000 -0.000020 0
0.997065 -0.021001 0
0.988204 -0.044233 0
0.971958 -0.073042 0
0.945670 -0.112918 0
0.904572 -0.174795 0
0.839943 -0.282674 0
0.736394 -0.554294 0
0.552513 -0.533777 0
0.000098 -0.166028 0
0.405161 -0.031478 0
0.338872 -0.044765 0
0.347277 -0.034103 0
0.372871 0.010580 0
0.375439 0.071529 0
0.346162 0.123560 0
0.295243 0.157962 0
0.233685 0.167534 0
0.176712 0.144878 0
0.143344 0.086951 0
0.150405 0.001058 0
0.193910 -0.089535 0
0.256301 -0.157834 0
0.331463 -0.187289 0
0.419402 -0.170536 0
0.519909 -0.111149 0
0.622413 -0.028592 0
0.707209 0.047209 0
0.767002 0.104853 0
0.807010 0.150464 0
0.829442 0.186551 0
0.835190 0.213506 0
0.824485 0.231897 0
0.797016 0.243275 0
0.752758 0.249850 0
0.694234 0.252351 0
0.629376 0.247102 0
0.571490 0.226045 0
0.533699 0.181905 0
0.521679 0.114530 0
0.531830 0.032190 0
0.554174 -0.052194 0
0.578268 -0.128672 0
0.599805 -0.192764 0
0.619022 -0.241249 0
0.638833 -0.270274 0
0.663241 -0.275676 0
0.695479 -0.254722 0
0.736401 -0.208339 0
0.784134 -0.142052 0
0.834936 -0.064963 0
0.882665 0.010569 0
0.920582 0.074517 0
0.947359 0.124221 0
0.962915 0.160485 0
0.967505 0.184826 0
0.961384 0.199384 0
0.944757 0.206751 0
0.918236 0.209309 0
0.883877 0.207859 0
0.846104 0.200376 0
0.811242 0.182504 0
0.785208 0.150377 0
0.770940 0.103777 0
0.767696 0.046883 0
0.772474 -0.013503 0
0.781570 -0.070730 0
0.792093 -0.120412 0
0.802451 -0.160311 0
0.812229 -0.189098 0
0.821971 -0.205578 0
0.832809 -0.208491 0
0.845899 -0.196904 0
0.861852 -0.170960 0
0.880440 -0.132462 0
0.900724 -0.084880 0
0.921354 -0.032847 0
0.940475 0.018133 0
0.955971 0.063299 0
0.966615 0.100118 0
0.971642 0.127758 0
0.970634 0.146561 0
0.963559 0.157567 0
0.950946 0.161914 0
0.934087 0.160199 0
0.915044 0.152136 0
0.896305 0.136822 0
0.880162 0.113571 0
0.868119 0.082805 0
0.860694 0.046381 0
0.857604 0.007237 0
0.858097 -0.031309 0
0.861160 -0.066297 0
0.865844 -0.095516 0
0.871426 -0.117445 0
0.877440 -0.131055 0
0.883633 -0.135653 0
0.889849 -0.130852 0
0.895868 -0.116726 0
0.901291 -0.092322 0
0.905089 -0.076198 0
1.000000 -0.000020 0
0.996088 -0.013814 0
0.984090 -0.028578 0
0.961719 -0.045820 0
0.924361 -0.067689 0
0.862766 -0.097341 0
0.757181 -0.138188 0
0.564155 -0.209647 0
0.072546 -0.000496 0
-0.535216 0.129972 0
0.000000 -0.000014 0
-0.030055 -0.047131 0
-0.051934 -0.087178 0
-0.050345 -0.037042 0
-0.047798 0.061800 0
-0.058242 0.149259 0
-0.081564 0.199699 0
-0.105318 0.206191 0
-0.113495 0.162029 0
-0.091413 0.068932 0
-0.041579 -0.048297 0
0.014540 -0.152726 0
0.069735 -0.226676 0
0.126700 -0.264276 0
0.191923 -0.259053 0
0.270239 -0.211825 0
0.361724 -0.132851 0
0.456016 -0.040678 0
0.534165 0.042592 0
0.589558 0.109636 0
0.624468 0.165464 0
0.639553 0.211935 0
0.635058 0.250033 0
0.612287 0.280307 0
0.575579 0.301467 0
0.533931 0.308701 0
0.499964 0.294285 0
0.484964 0.252092 0
0.493072 0.182981 0
0.519929 0.095715 0
0.556042 0.003850 0
0.589802 -0.080219 0
0.616001 -0.151417 0
0.633194 -0.209622 0
0.642309 -0.254463 0
0.646639 -0.284122 0
0.651502 -0.295027 0
0.662786 -0.283011 0
0.684549 -0.246024 0
0.717162 -0.186641 0
0.757482 -0.112201 0
0.800502 -0.032954 0
0.838991 0.039997 0
0.868498 0.100351 0
0.887719 0.147703 0
0.896114 0.183274 0
0.893540 0.209008 0
0.880482 0.226892 0
0.858754 0.237819 0
0.832172 0.240400 0
0.806317 0.230915 0
0.786811 0.205362 0