# vtk DataFile Version 2.0
generated by CFD-lab course output (written by Tobias Neckel) 
ASCII

DATASET STRUCTURED_GRID
DIMENSIONS  101 21 1 
POINTS 2121 float

0.000000 0.000000 0
0.100000 0.000000 0
0.200000 0.000000 0
0.300000 0.000000 0
0.400000 0.000000 0
0.500000 0.000000 0
0.600000 0.000000 0
0.700000 0.000000 0
0.800000 0.000000 0
0.900000 0.000000 0
1.000000 0.000000 0
1.100000 0.000000 0
1.200000 0.000000 0
1.300000 0.000000 0
1.400000 0.000000 0
1.500000 0.000000 0
1.600000 0.000000 0
1.700000 0.000000 0
1.800000 0.000000 0
1.900000 0.000000 0
2.000000 0.000000 0
2.100000 0.000000 0
2.200000 0.000000 0
2.300000 0.000000 0
2.400000 0.000000 0
2.500000 0.000000 0
2.600000 0.000000 0
2.700000 0.000000 0
2.800000 0.000000 0
2.900000 0.000000 0
3.000000 0.000000 0
3.100000 0.000000 0
3.200000 0.000000 0
3.300000 0.000000 0
3.400000 0.000000 0
3.500000 0.000000 0
3.600000 0.000000 0
3.700000 0.000000 0
3.800000 0.000000 0
3.900000 0.000000 0
4.000000 0.000000 0
4.100000 0.000000 0
4.200000 0.000000 0
4.300000 0.000000 0
4.400000 0.000000 0
4.500000 0.000000 0
4.600000 0.000000 0
4.700000 0.000000 0
4.800000 0.000000 0
4.900000 0.000000 0
5.000000 0.000000 0
5.100000 0.000000 0
5.200000 0.000000 0
5.300000 0.000000 0
5.400000 0.000000 0
5.500000 0.000000 0
5.600000 0.000000 0
5.700000 0.000000 0
5.800000 0.000000 0
5.900000 0.000000 0
6.000000 0.000000 0
6.100000 0.000000 0
6.200000 0.000000 0
6.300000 0.000000 0
6.400000 0.000000 0
6.500000 0.000000 0
6.600000 0.000000 0
6.700000 0.000000 0
6.800000 0.000000 0
6.900000 0.000000 0
7.000000 0.000000 0
7.100000 0.000000 0
7.200000 0.000000 0
7.300000 0.000000 0
7.400000 0.000000 0
7.500000 0.000000 0
7.600000 0.000000 0
7.700000 0.000000 0
7.800000 0.000000 0
7.900000 0.000000 0
8.000000 0.000000 0
8.100000 0.000000 0
8.200000 0.000000 0
8.300000 0.000000 0
8.400000 0.000000 0
8.500000 0.000000 0
8.600000 0.000000 0
8.700000 0.000000 0
8.800000 0.000000 0
8.900000 0.000000 0
9.000000 0.000000 0
9.100000 0.000000 0
9.200000 0.000000 0
9.300000 0.000000 0
9.400000 0.000000 0
9.500000 0.000000 0
9.600000 0.000000 0
9.700000 0.000000 0
9.800000 0.000000 0
9.900000 0.000000 0
10.000000 0.000000 0
0.000000 0.100000 0
0.100000 0.100000 0
0.200000 0.100000 0
0.300000 0.100000 0
0.400000 0.100000 0
0.500000 0.100000 0
0.600000 0.100000 0
0.700000 0.100000 0
0.800000 0.100000 0
0.900000 0.100000 0
1.000000 0.100000 0
1.100000 0.100000 0
1.200000 0.100000 0
1.300000 0.100000 0
1.400000 0.100000 0
1.500000 0.100000 0
1.600000 0.100000 0
1.700000 0.100000 0
1.800000 0.100000 0
1.900000 0.100000 0
2.000000 0.100000 0
2.100000 0.100000 0
2.200000 0.100000 0
2.300000 0.100000 0
2.400000 0.100000 0
2.500000 0.100000 0
2.600000 0.100000 0
2.700000 0.100000 0
2.800000 0.100000 0
2.900000 0.100000 0
3.000000 0.100000 0
3.100000 0.100000 0
3.200000 0.100000 0
3.300000 0.100000 0
3.400000 0.100000 0
3.500000 0.100000 0
3.600000 0.100000 0
3.700000 0.100000 0
3.800000 0.100000 0
3.900000 0.100000 0
4.000000 0.100000 0
4.100000 0.100000 0
4.200000 0.100000 0
4.300000 0.100000 0
4.400000 0.100000 0
4.500000 0.100000 0
4.600000 0.100000 0
4.700000 0.100000 0
4.800000 0.100000 0
4.900000 0.100000 0
5.000000 0.100000 0
5.100000 0.100000 0
5.200000 0.100000 0
5.300000 0.100000 0
5.400000 0.100000 0
5.500000 0.100000 0
5.600000 0.100000 0
5.700000 0.100000 0
5.800000 0.100000 0
5.900000 0.100000 0
6.000000 0.100000 0
6.100000 0.100000 0
6.200000 0.100000 0
6.300000 0.100000 0
6.400000 0.100000 0
6.500000 0.100000 0
6.600000 0.100000 0
6.700000 0.100000 0
6.800000 0.100000 0
6.900000 0.100000 0
7.000000 0.100000 0
7.100000 0.100000 0
7.200000 0.100000 0
7.300000 0.100000 0
7.400000 0.100000 0
7.500000 0.100000 0
7.600000 0.100000 0
7.700000 0.100000 0
7.800000 0.100000 0
7.900000 0.100000 0
8.000000 0.100000 0
8.100000 0.100000 0
8.200000 0.100000 0
8.300000 0.100000 0
8.400000 0.100000 0
8.500000 0.100000 0
8.600000 0.100000 0
8.700000 0.100000 0
8.800000 0.100000 0
8.900000 0.100000 0
9.000000 0.100000 0
9.100000 0.100000 0
9.200000 0.100000 0
9.300000 0.100000 0
9.400000 0.100000 0
9.500000 0.100000 0
9.600000 0.100000 0
9.700000 0.100000 0
9.800000 0.100000 0
9.900000 0.100000 0
10.000000 0.100000 0
0.000000 0.200000 0
0.100000 0.200000 0
0.200000 0.200000 0
0.300000 0.200000 0
0.400000 0.200000 0
0.500000 0.200000 0
0.600000 0.200000 0
0.700000 0.200000 0
0.800000 0.200000 0
0.900000 0.200000 0
1.000000 0.200000 0
1.100000 0.200000 0
1.200000 0.200000 0
1.300000 0.200000 0
1.400000 0.200000 0
1.500000 0.200000 0
1.600000 0.200000 0
1.700000 0.200000 0
1.800000 0.200000 0
1.900000 0.200000 0
2.000000 0.200000 0
2.100000 0.200000 0
2.200000 0.200000 0
2.300000 0.200000 0
2.400000 0.200000 0
2.500000 0.200000 0
2.600000 0.200000 0
2.700000 0.200000 0
2.800000 0.200000 0
2.900000 0.200000 0
3.000000 0.200000 0
3.100000 0.200000 0
3.200000 0.200000 0
3.300000 0.200000 0
3.400000 0.200000 0
3.500000 0.200000 0
3.600000 0.200000 0
3.700000 0.200000 0
3.800000 0.200000 0
3.900000 0.200000 0
4.000000 0.200000 0
4.100000 0.200000 0
4.200000 0.200000 0
4.300000 0.200000 0
4.400000 0.200000 0
4.500000 0.200000 0
4.600000 0.200000 0
4.700000 0.200000 0
4.800000 0.200000 0
4.900000 0.200000 0
5.000000 0.200000 0
5.100000 0.200000 0
5.200000 0.200000 0
5.300000 0.200000 0
5.400000 0.200000 0
5.500000 0.200000 0
5.600000 0.200000 0
5.700000 0.200000 0
5.800000 0.200000 0
5.900000 0.200000 0
6.000000 0.200000 0
6.100000 0.200000 0
6.200000 0.200000 0
6.300000 0.200000 0
6.400000 0.200000 0
6.500000 0.200000 0
6.600000 0.200000 0
6.700000 0.200000 0
6.800000 0.200000 0
6.900000 0.200000 0
7.000000 0.200000 0
7.100000 0.200000 0
7.200000 0.200000 0
7.300000 0.200000 0
7.400000 0.200000 0
7.500000 0.200000 0
7.600000 0.200000 0
7.700000 0.200000 0
7.800000 0.200000 0
7.900000 0.200000 0
8.000000 0.200000 0
8.100000 0.200000 0
8.200000 0.200000 0
8.300000 0.200000 0
8.400000 0.200000 0
8.500000 0.200000 0
8.600000 0.200000 0
8.700000 0.200000 0
8.800000 0.200000 0
8.900000 0.200000 0
9.000000 0.200000 0
9.100000 0.200000 0
9.200000 0.200000 0
9.300000 0.200000 0
9.400000 0.200000 0
9.500000 0.200000 0
9.600000 0.200000 0
9.700000 0.200000 0
9.800000 0.200000 0
9.900000 0.200000 0
10.000000 0.200000 0
0.000000 0.300000 0
0.100000 0.300000 0
0.200000 0.300000 0
0.300000 0.300000 0
0.400000 0.300000 0
0.500000 0.300000 0
0.600000 0.300000 0
0.700000 0.300000 0
0.800000 0.300000 0
0.900000 0.300000 0
1.000000 0.300000 0
1.100000 0.300000 0
1.200000 0.300000 0
1.300000 0.300000 0
1.400000 0.300000 0
1.500000 0.300000 0
1.600000 0.300000 0
1.700000 0.300000 0
1.800000 0.300000 0
1.900000 0.300000 0
2.000000 0.300000 0
2.100000 0.300000 0
2.200000 0.300000 0
2.300000 0.300000 0
2.400000 0.300000 0
2.500000 0.300000 0
2.600000 0.300000 0
2.700000 0.300000 0
2.800000 0.300000 0
2.900000 0.300000 0
3.000000 0.300000 0
3.100000 0.300000 0
3.200000 0.300000 0
3.300000 0.300000 0
3.400000 0.300000 0
3.500000 0.300000 0
3.600000 0.300000 0
3.700000 0.300000 0
3.800000 0.300000 0
3.900000 0.300000 0
4.000000 0.300000 0
4.100000 0.300000 0
4.200000 0.300000 0
4.300000 0.300000 0
4.400000 0.300000 0
4.500000 0.300000 0
4.600000 0.300000 0
4.700000 0.300000 0
4.800000 0.300000 0
4.900000 0.300000 0
5.000000 0.300000 0
5.100000 0.300000 0
5.200000 0.300000 0
5.300000 0.300000 0
5.400000 0.300000 0
5.500000 0.300000 0
5.600000 0.300000 0
5.700000 0.300000 0
5.800000 0.300000 0
5.900000 0.300000 0
6.000000 0.300000 0
6.100000 0.300000 0
6.200000 0.300000 0
6.300000 0.300000 0
6.400000 0.300000 0
6.500000 0.300000 0
6.600000 0.300000 0
6.700000 0.300000 0
6.800000 0.300000 0
6.900000 0.300000 0
7.000000 0.300000 0
7.100000 0.300000 0
7.200000 0.300000 0
7.300000 0.300000 0
7.400000 0.300000 0
7.500000 0.300000 0
7.600000 0.300000 0
7.700000 0.300000 0
7.800000 0.300000 0
7.900000 0.300000 0
8.000000 0.300000 0
8.100000 0.300000 0
8.200000 0.300000 0
8.300000 0.300000 0
8.400000 0.300000 0
8.500000 0.300000 0
8.600000 0.300000 0
8.700000 0.300000 0
8.800000 0.300000 0
8.900000 0.300000 0
9.000000 0.300000 0
9.100000 0.300000 0
9.200000 0.300000 0
9.300000 0.300000 0
9.400000 0.300000 0
9.500000 0.300000 0
9.600000 0.300000 0
9.700000 0.300000 0
9.800000 0.300000 0
9.900000 0.300000 0
10.000000 0.300000 0
0.000000 0.400000 0
0.100000 0.400000 0
0.200000 0.400000 0
0.300000 0.400000 0
0.400000 0.400000 0
0.500000 0.400000 0
0.600000 0.400000 0
0.700000 0.400000 0
0.800000 0.400000 0
0.900000 0.400000 0
1.000000 0.400000 0
1.100000 0.400000 0
1.200000 0.400000 0
1.300000 0.400000 0
1.400000 0.400000 0
1.500000 0.400000 0
1.600000 0.400000 0
1.700000 0.400000 0
1.800000 0.400000 0
1.900000 0.400000 0
2.000000 0.400000 0
2.100000 0.400000 0
2.200000 0.400000 0
2.300000 0.400000 0
2.400000 0.400000 0
2.500000 0.400000 0
2.600000 0.400000 0
2.700000 0.400000 0
2.800000 0.400000 0
2.900000 0.400000 0
3.000000 0.400000 0
3.100000 0.400000 0
3.200000 0.400000 0
3.300000 0.400000 0
3.400000 0.400000 0
3.500000 0.400000 0
3.600000 0.400000 0
3.700000 0.400000 0
3.800000 0.400000 0
3.900000 0.400000 0
4.000000 0.400000 0
4.100000 0.400000 0
4.200000 0.400000 0
4.300000 0.400000 0
4.400000 0.400000 0
4.500000 0.400000 0
4.600000 0.400000 0
4.700000 0.400000 0
4.800000 0.400000 0
4.900000 0.400000 0
5.000000 0.400000 0
5.100000 0.400000 0
5.200000 0.400000 0
5.300000 0.400000 0
5.400000 0.400000 0
5.500000 0.400000 0
5.600000 0.400000 0
5.700000 0.400000 0
5.800000 0.400000 0
5.900000 0.400000 0
6.000000 0.400000 0
6.100000 0.400000 0
6.200000 0.400000 0
6.300000 0.400000 0
6.400000 0.400000 0
6.500000 0.400000 0
6.600000 0.400000 0
6.700000 0.400000 0
6.800000 0.400000 0
6.900000 0.400000 0
7.000000 0.400000 0
7.100000 0.400000 0
7.200000 0.400000 0
7.300000 0.400000 0
7.400000 0.400000 0
7.500000 0.400000 0
7.600000 0.400000 0
7.700000 0.400000 0
7.800000 0.400000 0
7.900000 0.400000 0
8.000000 0.400000 0
8.100000 0.400000 0
8.200000 0.400000 0
8.300000 0.400000 0
8.400000 0.400000 0
8.500000 0.400000 0
8.600000 0.400000 0
[...]
POINT_DATA 2121 

VECTORS velocity float
0.500000 0.000000 0
-0.000004 0.000000 0
-0.000014 0.000000 0
-0.000033 0.000000 0
-0.000057 0.000000 0
-0.000086 0.000000 0
-0.000114 0.000000 0
-0.000143 0.000000 0
-0.000169 0.000000 0
-0.000184 0.000000 0
-0.000178 0.000000 0
-0.000142 0.000000 0
-0.000061 0.000000 0
0.000068 0.000000 0
0.000252 0.000000 0
0.000484 0.000000 0
0.000741 0.000000 0
0.000997 0.000000 0
0.001218 0.000000 0
0.001371 0.000000 0
0.001426 0.000000 0
0.001360 0.000000 0
0.001160 0.000000 0
0.000818 0.000000 0
0.000339 0.000000 0
-0.000264 0.000000 0
-0.000970 0.000000 0
-0.001745 0.000000 0
-0.002529 0.000000 0
-0.003195 0.000000 0
-0.003605 0.000000 0
-0.003632 0.000000 0
-0.003216 0.000000 0
-0.002403 0.000000 0
-0.001343 0.000000 0
-0.000205 0.000000 0
0.000907 0.000000 0
0.001906 0.000000 0
0.002735 0.000000 0
0.003367 0.000000 0
0.003793 0.000000 0
0.004016 0.000000 0
0.004039 0.000000 0
0.003868 0.000000 0
0.003505 0.000000 0
0.002947 0.000000 0
0.002188 0.000000 0
0.001211 0.000000 0
0.000016 0.000000 0
-0.001320 0.000000 0
-0.002662 0.000000 0
-0.003931 0.000000 0
-0.005043 0.000000 0
-0.005891 0.000000 0
-0.006356 0.000000 0
-0.006318 0.000000 0
-0.005683 0.000000 0
-0.004448 0.000000 0
-0.002753 0.000000 0
-0.000887 0.000000 0
0.000915 0.000000 0
0.002562 0.000000 0
0.003963 0.000000 0
0.005045 0.000000 0
0.005762 0.000000 0
0.006095 0.000000 0
0.006048 0.000000 0
0.005639 0.000000 0
0.004895 0.000000 0
0.003855 0.000000 0
0.002579 0.000000 0
0.001162 0.000000 0
-0.000242 0.000000 0
-0.001419 0.000000 0
-0.002359 0.000000 0
-0.003112 0.000000 0
-0.003727 0.000000 0
-0.004239 0.000000 0
-0.004655 0.000000 0
-0.004945 0.000000 0
-0.005045 0.000000 0
-0.004855 0.000000 0
-0.004278 0.000000 0
-0.003265 0.000000 0
-0.001875 0.000000 0
-0.000280 0.000000 0
0.001376 0.000000 0
0.003014 0.000000 0
0.004531 0.000000 0
0.005806 0.000000 0
0.006708 0.000000 0
0.007115 0.000000 0
0.006944 0.000000 0
0.006198 0.000000 0
0.004995 0.000000 0
0.003552 0.000000 0
0.002128 0.000000 0
0.000993 0.000000 0
0.000292 0.000000 0
-0.000060 0.000000 0
-0.000223 0.000000 0
1.000000 0.000002 0
1.002546 -0.004663 0
1.010535 -0.010156 0
1.024394 -0.016185 0
1.044614 -0.022556 0
1.071533 -0.028903 0
1.105032 -0.034578 0
1.144124 -0.038673 0
1.186658 -0.040248 0
1.229189 -0.038920 0
1.268513 -0.035153 0
1.302595 -0.029809 0
1.330470 -0.023650 0
1.351805 -0.017143 0
1.366504 -0.010519 0
1.374540 -0.003936 0
1.375985 0.002420 0
1.371120 0.008331 0
1.360487 0.013544 0
1.344931 0.017790 0
1.325579 0.020835 0
1.303780 0.022505 0
1.281018 0.022709 0
1.258824 0.021437 0
1.238691 0.018756 0
1.221999 0.014795 0
1.209964 0.009727 0
1.203602 0.003778 0
1.203634 -0.002601 0
1.210266 -0.008599 0
1.222824 -0.013204 0
1.239487 -0.015455 0
1.257393 -0.014761 0
1.273219 -0.011199 0
1.284020 -0.005535 0
1.287934 0.001202 0
1.284339 0.008153 0
1.273511 0.014675 0
1.256305 0.020307 0
1.233901 0.024784 0
1.207622 0.027983 0
1.178823 0.029867 0
1.148841 0.030441 0
1.118981 0.029721 0
1.090526 0.027712 0
1.064736 0.024400 0
1.042847 0.019729 0
1.026031 0.013617 0
1.015335 0.006082 0
1.011598 -0.002406 0
1.015417 -0.011065 0
1.027035 -0.019251 0
1.046219 -0.026403 0
1.072139 -0.031911 0
1.103347 -0.035121 0
1.137764 -0.035399 0
1.172672 -0.032271 0
1.204789 -0.025702 0
1.230610 -0.016398 0
1.247079 -0.005783 0
1.252430 0.004802 0
1.246744 0.014605 0
1.231174 0.023119 0
1.207375 0.029911 0
1.177355 0.034680 0
1.143320 0.037261 0
1.107539 0.037603 0
1.072240 0.035738 0
1.039508 0.031759 0
1.011174 0.025847 0
0.988657 0.018325 0
0.972803 0.009759 0
0.963807 0.001125 0
0.961358 -0.006466 0
0.964780 -0.012565 0
0.973233 -0.017358 0
0.985964 -0.021138 0
1.002381 -0.024138 0
1.022039 -0.026454 0
1.044544 -0.027991 0
1.069360 -0.028442 0
1.095586 -0.027332 0
1.121791 -0.024166 0
1.145993 -0.018691 0
1.165808 -0.011181 0
1.178813 -0.002456 0
1.183144 0.006646 0
1.178256 0.015570 0
1.164638 0.023772 0
1.143400 0.030590 0
1.116263 0.035307 0
1.085513 0.037233 0
1.053842 0.035878 0
1.024040 0.031201 0
0.998548 0.023799 0
0.978991 0.014880 0
0.965880 0.006058 0
0.958631 -0.000868 0
0.955849 -0.004613 0
0.955499 -0.002856 0
0.953114 -0.000274 0
1.000000 0.000005 0
1.002863 -0.010575 0
1.011296 -0.021871 0
1.025685 -0.034096 0
1.046737 -0.047146 0
1.075216 -0.060416 0
1.111546 -0.072584 0
1.155139 -0.081619 0
1.203818 -0.085063 0
1.252012 -0.081857 0
1.295250 -0.073406 0
1.331598 -0.061952 0
1.360752 -0.049206 0
1.382986 -0.036032 0
1.398499 -0.022735 0
1.407251 -0.009483 0
1.409178 0.003415 0
1.404463 0.015490 0
1.393595 0.026178 0
1.377446 0.034894 0
1.357227 0.041135 0
1.334392 0.044544 0
1.310537 0.044938 0
1.287295 0.042308 0
1.266234 0.036807 0
1.248773 0.028712 0
1.236154 0.018387 0
1.229462 0.006326 0
1.229675 -0.006663 0
1.237446 -0.019183 0
1.252490 -0.029211 0
1.273038 -0.034559 0
1.295812 -0.033725 0
1.316650 -0.026623 0
1.331656 -0.014714 0
1.338420 -0.000318 0
1.336516 0.014423 0
1.326639 0.028033 0
1.309997 0.039608 0
1.288024 0.048680 0
1.262177 0.055074 0
1.233848 0.058776 0
1.204340 0.059835 0
1.174885 0.058307 0
1.146655 0.054236 0
1.120762 0.047669 0
1.098222 0.038694 0
1.079888 0.027501 0
1.066381 0.014421 0
1.058168 -0.000094 0
1.055871 -0.015448 0
1.060072 -0.030811 0
1.071011 -0.045111 0
1.088529 -0.057132 0
1.112153 -0.065626 0
1.141088 -0.069325 0
1.173937 -0.067023 0
1.208377 -0.057935 0
1.241033 -0.042287 0
1.267756 -0.021819 0
1.284551 0.000333 0
1.289430 0.021253 0
1.283250 0.039364 0
1.267725 0.053813 0
1.244923 0.064049 0
1.217067 0.069809 0
1.186387 0.071073 0
1.154985 0.068023 0
1.124706 0.061058 0
1.097004 0.050843 0
1.072844 0.038363 0
1.052671 0.024842 0
1.036544 0.011436 0
1.024517 -0.000983 0
1.016726 -0.011884 0
1.013049 -0.021193 0
1.013279 -0.029156 0
1.017327 -0.036083 0
1.025323 -0.042170 0
1.037539 -0.047325 0
1.054143 -0.051044 0
1.074896 -0.052432 0
1.098958 -0.050407 0
1.124835 -0.044015 0
1.150389 -0.032815 0
1.172911 -0.017330 0
1.189494 0.000564 0
1.198018 0.018514 0
1.198235 0.034865 0
1.190974 0.048386 0
1.177569 0.057897 0
1.159704 0.062431 0
1.139179 0.061484 0
1.117675 0.055305 0
1.096569 0.045060 0
1.076857 0.032679 0
1.059179 0.020371 0
1.043941 0.010041 0
1.031505 0.003142 0
1.021817 0.002746 0
1.015021 0.004412 0
1.000000 0.000007 0
1.002458 -0.015981 0
1.010046 -0.032981 0
1.023435 -0.051623 0
1.043819 -0.072077 0
1.072799 -0.093704 0
1.112008 -0.114497 0
1.161994 -0.130947 0
1.221650 -0.137130 0
1.278639 -0.130356 0
1.326052 -0.114734 0
1.363228 -0.095308 0
1.391745 -0.075039 0
1.413193 -0.054891 0
1.428316 -0.034787 0
1.436883 -0.014620 0
1.438326 0.005203 0
1.432507 0.023907 0
1.419777 0.040553 0
1.401063 0.054151 0
1.377739 0.063882 0
1.351463 0.069188 0
1.324043 0.069799 0
1.297310 0.065734 0
1.272982 0.057274 0
1.252550 0.044876 0
1.237245 0.029043 0
1.228170 0.010262 0
1.226598 -0.010576 0
1.233893 -0.031406 0
1.250391 -0.048792 0
1.274578 -0.058775 0
1.303028 -0.058374 0
1.330779 -0.047049 0
1.352320 -0.027308 0
1.363522 -0.003659 0
1.363570 0.019932 0
1.354041 0.041191 0
1.336885 0.058919 0
1.314058 0.072601 0
1.287296 0.082156 0
1.258069 0.087700 0
1.227627 0.089400 0
1.197070 0.087402 0
1.167402 0.081831 0
1.139554 0.072827 0
1.114370 0.060599 0
1.092564 0.045454 0
1.074668 0.027796 0
1.060980 0.008101 0
1.051580 -0.012970 0
1.046590 -0.034392 0
1.046339 -0.054859 0
1.051378 -0.073051 0
1.062641 -0.087678 0
1.081122 -0.097180 0
1.107077 -0.099558 0
1.139386 -0.092797 0
1.175362 -0.075777 0
1.210912 -0.049302 0
1.240999 -0.016876 0
1.260722 0.015901 0
1.268227 0.044820 0
1.264899 0.068234 0
1.252660 0.085335 0
1.233614 0.095793 0
1.209864 0.099682 0
1.183355 0.097416 0
1.155758 0.089737 0
1.128411 0.077705 0
1.102319 0.062655 0
1.078222 0.046055 0
1.056618 0.029276 0
1.037688 0.013348 0
1.021367 -0.001101 0
1.007544 -0.013914 0
0.996344 -0.025419 0
0.988486 -0.036184 0
0.985100 -0.046667 0
0.987369 -0.056811 0
0.996040 -0.065798 0
1.011071 -0.072146 0
1.031628 -0.074104 0
1.056293 -0.070119 0
1.083277 -0.059253 0
1.110527 -0.041558 0
1.135686 -0.018458 0
1.155975 0.006833 0
1.169296 0.030819 0
1.175515 0.051258 0
1.175209 0.066579 0
1.169268 0.075625 0
1.158700 0.077908 0
1.144500 0.073813 0
1.127639 0.064617 0
1.109138 0.052270 0
1.090120 0.038974 0
1.071719 0.026807 0
1.054872 0.017511 0
1.040360 0.013628 0
1.030502 0.012972 0
1.000000 0.000010 0
1.001921 -0.020639 0
1.008016 -0.042847 0
1.019233 -0.067862 0
1.037366 -0.096503 0
1.065232 -0.128601 0
1.106663 -0.161780 0
1.165076 -0.191267 0
1.245010 -0.201711 0
1.312976 -0.186254 0
1.360723 -0.157990 0
1.393380 -0.127645 0
1.416642 -0.099172 0
1.434300 -0.072606 0
1.447916 -0.046429 0
1.456738 -0.019498 0
1.458602 0.007785 0
1.452290 0.034033 0
1.437806 0.057616 0
1.416182 0.076925 0
1.389057 0.090728 0
1.358380 0.098234 0
1.326263 0.099085 0
1.294839 0.093366 0
1.266075 0.081568 0
1.241547 0.064452 0
1.222332 0.042772 0
1.209109 0.016980 0
1.202500 -0.012378 0
1.204224 -0.042971 0
1.215858 -0.069893 0
1.237267 -0.087198 0
1.266790 -0.089931 0
1.300791 -0.075919 0
1.333077 -0.047457 0
1.355976 -0.011569 0
1.364186 0.023901 0
1.359215 0.054716 0
1.344323 0.079589 0
1.322404 0.098265 0
1.295747 0.111060 0
1.266097 0.118442 0
1.234799 0.120830 0
1.202946 0.118526 0
1.171499 0.111747 0
1.141346 0.100697 0
1.113306 0.085680 0
1.088003 0.067198 0
1.065616 0.046001 0
1.045623 0.022993 0
1.026905 -0.001058 0
1.008586 -0.025570 0
0.991571 -0.049898 0
0.978912 -0.073431 0
0.974310 -0.095368 0
0.980632 -0.113760 0
0.998691 -0.125287 0
1.027289 -0.126221 0
1.063813 -0.113816 0
1.104656 -0.087460 0
1.145342 -0.049480 0
1.180470 -0.005979 0
1.204619 0.035184 0
1.216743 0.069377 0
1.218275 0.095330 0
1.211012 0.112601 0
1.196858 0.121329 0
1.177637 0.122127 0
1.154988 0.115999 0
1.130311 0.104278 0
1.104756 0.088548 0
1.079189 0.070539 0
1.054107 0.051966 0
1.029606 0.034265 0
1.005579 0.018256 0
0.982282 0.003827 0
0.960761 -0.010101 0
0.942923 -0.024840 0
0.931174 -0.041053 0
0.927330 -0.058266 0
0.931896 -0.074745 0
0.944188 -0.088019 0
0.962850 -0.095628 0
0.986288 -0.095662 0
1.012897 -0.087047 0
1.041110 -0.069737 0
1.069318 -0.044882 0
1.095638 -0.015095 0
1.117489 0.015327 0
1.133169 0.042474 0
1.142504 0.064145 0
1.145696 0.078940 0
1.143175 0.086251 0
1.135526 0.086365 0
1.123499 0.080421 0
1.108048 0.070196 0
1.090301 0.057788 0
1.071484 0.045287 0
1.052888 0.034498 0
1.035952 0.027113 0
1.024170 0.023958 0
1.000000 0.000012 0
1.001088 -0.024010 0
1.004690 -0.050290 0
1.011848 -0.080966 0
1.024755 -0.118072 0
1.047472 -0.163001 0
1.087017 -0.214344 0
1.153030 -0.269298 0
1.268181 -0.285027 0
1.340035 -0.246063 0
1.372659 -0.195137 0
1.387693 -0.151229 0
1.396190 -0.115962 0
1.403853 -0.086169 0
1.413262 -0.057230 0
1.423379 -0.025311 0
1.428779 0.009645 0
1.424926 0.044697 0
1.411241 0.076654 0
1.388931 0.102894 0
1.359907 0.121679 0
1.326299 0.131977 0
1.290418 0.133335 0
1.254684 0.125921 0
1.221341 0.110569 0
1.191978 0.088623 0
1.167159 0.061486 0
1.146593 0.030101 0
1.129415 -0.005686 0
1.115192 -0.044762 0
1.108137 -0.081836 0
1.112633 -0.109711 0
1.131705 -0.121903 0
1.165158 -0.113335 0
1.208146 -0.082493 0
1.251251 -0.034771 0
1.282731 0.016691 0
1.296075 0.061051 0
1.295223 0.095728 0
1.284056 0.121174 0
1.265491 0.138458 0
1.241667 0.148644 0
1.214217 0.152547 0
1.184459 0.150698 0
1.153533 0.143426 0
1.122476 0.131016 0
1.092169 0.113938 0
1.063019 0.093139 0
1.034380 0.070173 0
1.004366 0.046810 0
0.971093 0.024067 0
0.935034 0.000943 0
0.900295 -0.025184 0
0.873664 -0.055787 0
0.860980 -0.089396 0
0.863598 -0.121560 0
0.879887 -0.146215 0
0.907283 -0.157921 0
0.943143 -0.153148 0
0.984768 -0.130835 0
1.029168 -0.092693 0
1.072718 -0.043380 0
1.110287 0.008544 0
1.137005 0.054576 0
1.152629 0.091063 0
1.158224 0.117207 0
1.155216 0.133053 0
1.145130 0.139283 0
1.129439 0.137060 0
1.109448 0.127933 0
1.086184 0.113773 0
1.060277 0.096701 0
1.031961 0.078854 0
1.001396 0.061872 0
0.969353 0.046221 0
0.937827 0.030901 0
0.909879 0.013938 0
0.888590 -0.006598 0
0.876030 -0.031075 0
0.872814 -0.057533 0
0.878104 -0.082655 0
0.890387 -0.103098 0
0.908113 -0.116203 0
0.929938 -0.120166 0
0.954702 -0.114074 0
0.981340 -0.097977 0
1.008783 -0.072984 0
1.035847 -0.041338 0
1.060934 -0.006713 0
1.081652 0.026243 0
1.096827 0.054050 0
1.106099 0.074951 0
1.109425 0.088077 0
1.107026 0.093486 0
1.099371 0.092092 0
1.087159 0.085464 0
1.071313 0.075534 0
1.052997 0.064216 0
1.033736 0.053039 0
1.015550 0.042342 0
1.002807 0.036551 0
1.000000 0.000015 0
0.999909 -0.025337 0
0.999848 -0.053601 0
1.000546 -0.087921 0
1.003836 -0.132124 0
1.013951 -0.190865 0
1.040472 -0.267342 0
1.102924 -0.372431 0
1.265499 -0.388711 0
1.310786 -0.290731 0
1.295444 -0.205651 0
1.274446 -0.151178 0
1.256521 -0.115335 0
1.245516 -0.089682 0
1.244968 -0.065961 0
1.256232 -0.035021 0
1.272690 0.006233 0
1.279371 0.051565 0
1.274377 0.093604 0
1.259375 0.128254 0
1.235992 0.153355 0
1.205851 0.167717 0
1.171014 0.170698 0
1.134059 0.162445 0
1.097582 0.144277 0
1.062708 0.118640 0
1.027657 0.088163 0
0.989281 0.054729 0
0.947291 0.019025 0
0.905681 -0.021693 0
0.872874 -0.067338 0
0.860935 -0.110771 0
0.873756 -0.142457 0
0.908994 -0.152360 0
0.961547 -0.133552 0
1.024108 -0.086156 0
1.086131 -0.020926 0
1.133922 0.042221 0
1.162106 0.091604 0
1.175069 0.127994 0
1.176164 0.153445 0
1.167815 0.169711 0
1.151959 0.178034 0
1.130229 0.179206 0
1.103992 0.173725 0
1.074207 0.162056 0
1.041048 0.145132 0
1.003536 0.124983 0
0.960052 0.104652 0
0.910459 0.086279 0
0.858523 0.068275 0
0.811796 0.045229 0
0.777830 0.011474 0
0.760349 -0.034114 0
0.758448 -0.085301 0
0.768669 -0.132668 0
0.787914 -0.168973 0
0.814380 -0.189479 0
0.847066 -0.191304 0
0.884985 -0.173488 0
0.926653 -0.137433 0
0.969945 -0.087101 0
1.011947 -0.029107 0
1.047580 0.027032 0
1.073479 0.074108 0
1.089576 0.110011 0
1.096486 0.134420 0
1.095146 0.147900 0
1.086574 0.151677 0
1.071661 0.147529 0
1.051009 0.137714 0
1.024923 0.124758 0
0.993758 0.110843 0
0.958659 0.096869 0
0.922239 0.081823 0
0.888461 0.063299 0
0.861464 0.039135 0
0.843987 0.009008 0
0.836360 -0.025278 0
0.837150 -0.060340 0
0.844407 -0.092318 0
0.856493 -0.118027 0
0.872298 -0.135179 0
0.891110 -0.142250 0
0.912391 -0.138448 0
0.935586 -0.123817 0
0.960021 -0.099389 0
0.984862 -0.067246 0
1.009072 -0.030480 0
1.030997 0.006579 0
1.048660 0.039695 0
1.061204 0.066339 0
1.068176 0.085319 0
1.069441 0.096414 0
1.065139 0.100283 0
1.055686 0.098248 0
1.041814 0.091944 0
1.024691 0.082858 0
1.006082 0.071939 0
0.988398 0.058036 0
0.975963 0.049543 0
1.000000 0.000017 0
0.998488 -0.023861 0
0.993892 -0.050920 0
0.986067 -0.084949 0
0.975140 -0.131476 0
0.962567 -0.199639 0
0.954571 -0.303318 0
0.972959 -0.494322 0
1.129398 -0.492888 0
1.111857 -0.276009 0
1.003272 -0.158799 0
0.940313 -0.112310 0
0.894230 -0.087036 0
0.861814 -0.074621 0
0.848551 -0.067951 0
0.861222 -0.053038 0
0.897473 -0.013500 0
0.937072 0.043004 0
0.960565 0.096645 0
0.971336 0.141274 0
0.969398 0.175197 0
0.954296 0.196952 0
0.926271 0.205127 0
0.885805 0.199355 0
0.833500 0.181924 0
0.771105 0.158554 0
0.703356 0.134919 0
0.638477 0.110471 0
0.586576 0.077915 0
0.556666 0.029652 0
0.550460 -0.037095 0
0.564481 -0.110595 0
0.595236 -0.169962 0
0.640271 -0.201128 0
0.698135 -0.197609 0
0.767067 -0.159357 0
0.843273 -0.093127 0
0.917961 -0.014928 0
0.977187 0.054576 0
1.017427 0.107112 0
1.042056 0.145708 0
1.053308 0.172845 0
1.052959 0.190129 0
1.042515 0.198660 0
1.023022 0.199444 0
0.994708 0.193956 0
0.956810 0.184605 0
0.908449 0.174133 0
0.851138 0.163250 0
0.791313 0.148340 0
0.739445 0.122730 0
0.704888 0.081637 0
0.690940 0.026266 0
0.693801 -0.036403 0
0.705779 -0.097715 0
0.721841 -0.151027 0
0.740288 -0.191929 0
0.761465 -0.217076 0
0.786508 -0.223756 0
0.816286 -0.210424 0
0.850682 -0.177656 0
0.888459 -0.128677 0
0.927545 -0.069094 0
0.964925 -0.006959 0
0.995804 0.049063 0
1.018334 0.094197 0
1.032169 0.127480 0
1.037480 0.149191 0
1.034624 0.160541 0
1.023928 0.163494 0
1.005641 0.160506 0
0.980221 0.153947 0
0.948968 0.145115 0
0.914633 0.133389 0
0.881312 0.116417 0
0.853308 0.091675 0
0.833608 0.058410 0
0.823061 0.018504 0
0.820672 -0.024239 0
0.824307 -0.065580 0
0.831970 -0.101997 0
0.842359 -0.130989 0
0.854846 -0.150820 0
0.869268 -0.160258 0
0.885652 -0.158550 0
0.903953 -0.145608 0
0.923880 -0.122262 0
0.944852 -0.090392 0
0.966032 -0.052850 0
0.986332 -0.013350 0
1.003941 0.023837 0
1.017490 0.055430 0
1.026199 0.079834 0
1.029632 0.096516 0
1.027657 0.105839 0
1.020490 0.108782 0
1.008786 0.106521 0
0.993779 0.099939 0
0.977359 0.089324 0
0.961949 0.072453 0
0.951015 0.061502 0
1.000000 0.000019 0
0.997119 -0.019229 0
0.988076 -0.041174 0
0.971513 -0.069167 0
0.944759 -0.108624 0
0.903013 -0.170297 0
0.837498 -0.277733 0
0.732848 -0.547256 0
0.547183 -0.527609 0
-0.000079 -0.164606 0
0.391775 -0.034109 0
0.316313 -0.042141 0
0.298277 -0.036841 0
0.306447 -0.044008 0
0.317942 -0.065374 0
0.344356 -0.083948 0
0.395396 -0.069623 0
0.467690 -0.011531 0
0.533584 0.059335 0
0.579041 0.119417 0
0.604649 0.170392 0
0.607633 0.210844 0
0.587236 0.239191 0
0.544022 0.255218 0
0.481533 0.258983 0
0.409039 0.248790 0
0.342274 0.220795 0
0.298301 0.171511 0
0.287053 0.100836 0
0.307294 0.014420 0
0.346205 -0.075158 0
0.388210 -0.155548 0
0.428745 -0.218247 0
0.470630 -0.255261 0
0.518777 -0.260350 0
0.576905 -0.231296 0
0.645611 -0.171823 0
0.721741 -0.091698 0
0.795816 -0.007866 0
0.854994 0.063121 0
0.897109 0.117559 0
0.923842 0.158803 0
0.936249 0.188823 0
0.935101 0.209140 0
0.920725 0.221528 0
0.893076 0.228265 0
0.852667 0.231388 0
0.802612 0.230653 0
0.750305 0.221788 0
0.706051 0.197974 0
0.678293 0.154702 0
0.669388 0.093736 0
0.675653 0.022563 0
0.690226 -0.048952 0
0.706741 -0.113341 0
0.721929 -0.167179 0
0.735106 -0.208599 0
0.747466 -0.235702 0
0.761349 -0.246128 0
0.779233 -0.237665 0
0.802603 -0.209609 0
0.831282 -0.163967 0
0.863623 -0.105576 0
0.897160 -0.041230 0
0.928177 0.020695 0
0.953038 0.073642 0
0.970414 0.115271 0
0.979699 0.145442 0
0.980621 0.165225 0
0.973107 0.176507 0
0.957454 0.181417 0
0.934788 0.181427 0
0.907563 0.176428 0
0.879539 0.164523 0
0.854873 0.143146 0
0.836703 0.111001 0
0.826211 0.069381 0
0.822761 0.021943 0
0.824746 -0.026525 0
0.830197 -0.071638 0
0.837493 -0.110369 0
0.845638 -0.140903 0
0.854278 -0.162088 0
0.863599 -0.173056 0
0.874109 -0.173134 0
0.886325 -0.162048 0
0.900463 -0.140291 0
0.916288 -0.109402 0
0.933145 -0.071964 0
0.950078 -0.031336 0
0.965773 0.008530 0
0.978613 0.044073 0
0.987574 0.073169 0
0.992004 0.094947 0
0.991605 0.109415 0
0.986495 0.117110 0
0.977315 0.118645 0
0.965310 0.114275 0
0.952267 0.103759 0
0.940263 0.084370 0
0.931623 0.071427 0
1.000000 0.000020 0
0.996196 -0.011934 0
0.984150 -0.025309 0
0.961663 -0.041629 0
0.924114 -0.062976 0
0.862267 -0.092378 0
0.756463 -0.133152 0
0.563541 -0.204005 0
0.074316 0.000509 0
-0.527712 0.126107 0
0.000000 0.000002 0
-0.034408 -0.029861 0
-0.054373 -0.077174 0
-0.043273 -0.094291 0
-0.045130 -0.105864 0
-0.039536 -0.130496 0
-0.009070 -0.136839 0
0.054007 -0.095189 0
0.140897 -0.014710 0
0.215532 0.070206 0
0.260104 0.146603 0
0.277751 0.214366 0
0.272084 0.268741 0
0.247444 0.305062 0
0.214071 0.316914 0
0.186787 0.297818 0
0.179288 0.245660 0
0.197876 0.165693 0
0.239196 0.068921 0
0.289539 -0.029504 0
0.334598 -0.118013 0
0.369918 -0.193136 0
0.395867 -0.252384 0
0.416839 -0.291161 0
0.439966 -0.303887 0
0.472567 -0.286195 0
0.519009 -0.237967 0
0.578737 -0.165136 0
0.646605 -0.078681 0
0.711393 0.005815 0
0.762174 0.076856 0
0.797413 0.133700 0
0.817265 0.178865 0
0.821852 0.214179 0
0.811469 0.241465 0
0.787381 0.262011 0
0.753228 0.275068 0
0.716063 0.276495 0
0.685200 0.259811 0
0.668409 0.220353 0
0.668232 0.159395 0
0.681697 0.084278 0
0.702989 0.005429 0
0.725177 -0.067490 0
0.744011 -0.129419 0
0.757505 -0.179394 0
0.765282 -0.217469 0
0.768563 -0.243322 0
0.770114 -0.255526 0
0.773651 -0.251682 0
0.782554 -0.229708 0
0.798460 -0.189699 0
0.820706 -0.134976 0
0.846931 -0.071516 0
0.873998 -0.006818 0