# vtk DataFile Version 2.0
generated by CFD-lab course output (written by Tobias Neckel) 
ASCII

DATASET STRUCTURED_GRID
DIMENSIONS  101 21 1 
POINTS 2121 float

0.000000 0.000000 0
0.100000 0.000000 0
0.200000 0.000000 0
0.300000 0.000000 0
0.400000 0.000000 0
0.500000 0.000000 0
0.600000 0.000000 0
0.700000 0.000000 0
0.800000 0.000000 0
0.900000 0.000000 0
1.000000 0.000000 0
1.100000 0.000000 0
1.200000 0.000000 0
1.300000 0.000000 0
1.400000 0.000000 0
1.500000 0.000000 0
1.600000 0.000000 0
1.700000 0.000000 0
1.800000 0.000000 0
1.900000 0.000000 0
2.000000 0.000000 0
2.100000 0.000000 0
2.200000 0.000000 0
2.300000 0.000000 0
2.400000 0.000000 0
2.500000 0.000000 0
2.600000 0.000000 0
2.700000 0.000000 0
2.800000 0.000000 0
2.900000 0.000000 0
3.000000 0.000000 0
3.100000 0.000000 0
3.200000 0.000000 0
3.300000 0.000000 0
3.400000 0.000000 0
3.500000 0.000000 0
3.600000 0.000000 0
3.700000 0.000000 0
3.800000 0.000000 0
3.900000 0.000000 0
4.000000 0.000000 0
4.100000 0.000000 0
4.200000 0.000000 0
4.300000 0.000000 0
4.400000 0.000000 0
4.500000 0.000000 0
4.600000 0.000000 0
4.700000 0.000000 0
4.800000 0.000000 0
4.900000 0.000000 0
5.000000 0.000000 0
5.100000 0.000000 0
5.200000 0.000000 0
5.300000 0.000000 0
5.400000 0.000000 0
5.500000 0.000000 0
5.600000 0.000000 0
5.700000 0.000000 0
5.800000 0.000000 0
5.900000 0.000000 0
6.000000 0.000000 0
6.100000 0.000000 0
6.200000 0.000000 0
6.300000 0.000000 0
6.400000 0.000000 0
6.500000 0.000000 0
6.600000 0.000000 0
6.700000 0.000000 0
6.800000 0.000000 0
6.900000 0.000000 0
7.000000 0.000000 0
7.100000 0.000000 0
7.200000 0.000000 0
7.300000 0.000000 0
7.400000 0.000000 0
7.500000 0.000000 0
7.600000 0.000000 0
7.700000 0.000000 0
7.800000 0.000000 0
7.900000 0.000000 0
8.000000 0.000000 0
8.100000 0.000000 0
8.200000 0.000000 0
8.300000 0.000000 0
8.400000 0.000000 0
8.500000 0.000000 0
8.600000 0.000000 0
8.700000 0.000000 0
8.800000 0.000000 0
8.900000 0.000000 0
9.000000 0.000000 0
9.100000 0.000000 0
9.200000 0.000000 0
9.300000 0.000000 0
9.400000 0.000000 0
9.500000 0.000000 0
9.600000 0.000000 0
9.700000 0.000000 0
9.800000 0.000000 0
9.900000 0.000000 0
10.000000 0.000000 0
0.000000 0.100000 0
0.100000 0.100000 0
0.200000 0.100000 0
0.300000 0.100000 0
0.400000 0.100000 0
0.500000 0.100000 0
0.600000 0.100000 0
0.700000 0.100000 0
0.800000 0.100000 0
0.900000 0.100000 0
1.000000 0.100000 0
1.100000 0.100000 0
1.200000 0.100000 0
1.300000 0.100000 0
1.400000 0.100000 0
1.500000 0.100000 0
1.600000 0.100000 0
1.700000 0.100000 0
1.800000 0.100000 0
1.900000 0.100000 0
2.000000 0.100000 0
2.100000 0.100000 0
2.200000 0.100000 0
2.300000 0.100000 0
2.400000 0.100000 0
2.500000 0.100000 0
2.600000 0.100000 0
2.700000 0.100000 0
2.800000 0.100000 0
2.900000 0.100000 0
3.000000 0.100000 0
3.100000 0.100000 0
3.200000 0.100000 0
3.300000 0.100000 0
3.400000 0.100000 0
3.500000 0.100000 0
3.600000 0.100000 0
3.700000 0.100000 0
3.800000 0.100000 0
3.900000 0.100000 0
4.000000 0.100000 0
4.100000 0.100000 0
4.200000 0.100000 0
4.300000 0.100000 0
4.400000 0.100000 0
4.500000 0.100000 0
4.600000 0.100000 0
4.700000 0.100000 0
4.800000 0.100000 0
4.900000 0.100000 0
5.000000 0.100000 0
5.100000 0.100000 0
5.200000 0.100000 0
5.300000 0.100000 0
5.400000 0.100000 0
5.500000 0.100000 0
5.600000 0.100000 0
5.700000 0.100000 0
5.800000 0.100000 0
5.900000 0.100000 0
6.000000 0.100000 0
6.100000 0.100000 0
6.200000 0.100000 0
6.300000 0.100000 0
6.400000 0.100000 0
6.500000 0.100000 0
6.600000 0.100000 0
6.700000 0.100000 0
6.800000 0.100000 0
6.900000 0.100000 0
7.000000 0.100000 0
7.100000 0.100000 0
7.200000 0.100000 0
7.300000 0.100000 0
7.400000 0.100000 0
7.500000 0.100000 0
7.600000 0.100000 0
7.700000 0.100000 0
7.800000 0.100000 0
7.900000 0.100000 0
8.000000 0.100000 0
8.100000 0.100000 0
8.200000 0.100000 0
8.300000 0.100000 0
8.400000 0.100000 0
8.500000 0.100000 0
8.600000 0.100000 0
8.700000 0.100000 0
8.800000 0.100000 0
8.900000 0.100000 0
9.000000 0.100000 0
9.100000 0.100000 0
9.200000 0.100000 0
9.300000 0.100000 0
9.400000 0.100000 0
9.500000 0.100000 0
9.600000 0.100000 0
9.700000 0.100000 0
9.800000 0.100000 0
9.900000 0.100000 0
10.000000 0.100000 0
0.000000 0.200000 0
0.100000 0.200000 0
0.200000 0.200000 0
0.300000 0.200000 0
0.400000 0.200000 0
0.500000 0.200000 0
0.600000 0.200000 0
0.700000 0.200000 0
0.800000 0.200000 0
0.900000 0.200000 0
1.000000 0.200000 0
1.100000 0.200000 0
1.200000 0.200000 0
1.300000 0.200000 0
1.400000 0.200000 0
1.500000 0.200000 0
1.600000 0.200000 0
1.700000 0.200000 0
1.800000 0.200000 0
1.900000 0.200000 0
2.000000 0.200000 0
2.100000 0.200000 0
2.200000 0.200000 0
2.300000 0.200000 0
2.400000 0.200000 0
2.500000 0.200000 0
2.600000 0.200000 0
2.700000 0.200000 0
2.800000 0.200000 0
2.900000 0.200000 0
3.000000 0.200000 0
3.100000 0.200000 0
3.200000 0.200000 0
3.300000 0.200000 0
3.400000 0.200000 0
3.500000 0.200000 0
3.600000 0.200000 0
3.700000 0.200000 0
3.800000 0.200000 0
3.900000 0.200000 0
4.000000 0.200000 0
4.100000 0.200000 0
4.200000 0.200000 0
4.300000 0.200000 0
4.400000 0.200000 0
4.500000 0.200000 0
4.600000 0.200000 0
4.700000 0.200000 0
4.800000 0.200000 0
4.900000 0.200000 0
5.000000 0.200000 0
5.100000 0.200000 0
5.200000 0.200000 0
5.300000 0.200000 0
5.400000 0.200000 0
5.500000 0.200000 0
5.600000 0.200000 0
5.700000 0.200000 0
5.800000 0.200000 0
5.900000 0.200000 0
6.000000 0.200000 0
6.100000 0.200000 0
6.200000 0.200000 0
6.300000 0.200000 0
6.400000 0.200000 0
6.500000 0.200000 0
6.600000 0.200000 0
6.700000 0.200000 0
6.800000 0.200000 0
6.900000 0.200000 0
7.000000 0.200000 0
7.100000 0.200000 0
7.200000 0.200000 0
7.300000 0.200000 0
7.400000 0.200000 0
7.500000 0.200000 0
7.600000 0.200000 0
7.700000 0.200000 0
7.800000 0.200000 0
7.900000 0.200000 0
8.000000 0.200000 0
8.100000 0.200000 0
8.200000 0.200000 0
8.300000 0.200000 0
8.400000 0.200000 0
8.500000 0.200000 0
8.600000 0.200000 0
8.700000 0.200000 0
8.800000 0.200000 0
8.900000 0.200000 0
9.000000 0.200000 0
9.100000 0.200000 0
9.200000 0.200000 0
9.300000 0.200000 0
9.400000 0.200000 0
9.500000 0.200000 0
9.600000 0.200000 0
9.700000 0.200000 0
9.800000 0.200000 0
9.900000 0.200000 0
10.000000 0.200000 0
0.000000 0.300000 0
0.100000 0.300000 0
0.200000 0.300000 0
0.300000 0.300000 0
0.400000 0.300000 0
0.500000 0.300000 0
0.600000 0.300000 0
0.700000 0.300000 0
0.800000 0.300000 0
0.900000 0.300000 0
1.000000 0.300000 0
1.100000 0.300000 0
1.200000 0.300000 0
1.300000 0.300000 0
1.400000 0.300000 0
1.500000 0.300000 0
1.600000 0.300000 0
1.700000 0.300000 0
1.800000 0.300000 0
1.900000 0.300000 0
2.000000 0.300000 0
2.100000 0.300000 0
2.200000 0.300000 0
2.300000 0.300000 0
2.400000 0.300000 0
2.500000 0.300000 0
2.600000 0.300000 0
2.700000 0.300000 0
2.800000 0.300000 0
2.900000 0.300000 0
3.000000 0.300000 0
3.100000 0.300000 0
3.200000 0.300000 0
3.300000 0.300000 0
3.400000 0.300000 0
3.500000 0.300000 0
3.600000 0.300000 0
3.700000 0.300000 0
3.800000 0.300000 0
3.900000 0.300000 0
4.000000 0.300000 0
4.100000 0.300000 0
4.200000 0.300000 0
4.300000 0.300000 0
4.400000 0.300000 0
4.500000 0.300000 0
4.600000 0.300000 0
4.700000 0.300000 0
4.800000 0.300000 0
4.900000 0.300000 0
5.000000 0.300000 0
5.100000 0.300000 0
5.200000 0.300000 0
5.300000 0.300000 0
5.400000 0.300000 0
5.500000 0.300000 0
5.600000 0.300000 0
5.700000 0.300000 0
5.800000 0.300000 0
5.900000 0.300000 0
6.000000 0.300000 0
6.100000 0.300000 0
6.200000 0.300000 0
6.300000 0.300000 0
6.400000 0.300000 0
6.500000 0.300000 0
6.600000 0.300000 0
6.700000 0.300000 0
6.800000 0.300000 0
6.900000 0.300000 0
7.000000 0.300000 0
7.100000 0.300000 0
7.200000 0.300000 0
7.300000 0.300000 0
7.400000 0.300000 0
7.500000 0.300000 0
7.600000 0.300000 0
7.700000 0.300000 0
7.800000 0.300000 0
7.900000 0.300000 0
8.000000 0.300000 0
8.100000 0.300000 0
8.200000 0.300000 0
8.300000 0.300000 0
8.400000 0.300000 0
8.500000 0.300000 0
8.600000 0.300000 0
8.700000 0.300000 0
8.800000 0.300000 0
8.900000 0.300000 0
9.000000 0.300000 0
9.100000 0.300000 0
9.200000 0.300000 0
9.300000 0.300000 0
9.400000 0.300000 0
9.500000 0.300000 0
9.600000 0.300000 0
9.700000 0.300000 0
9.800000 0.300000 0
9.900000 0.300000 0
10.000000 0.300000 0
0.000000 0.400000 0
0.100000 0.400000 0
0.200000 0.400000 0
0.300000 0.400000 0
0.400000 0.400000 0
0.500000 0.400000 0
0.600000 0.400000 0
0.700000 0.400000 0
0.800000 0.400000 0
0.900000 0.400000 0
1.000000 0.400000 0
1.100000 0.400000 0
1.200000 0.400000 0
1.300000 0.400000 0
1.400000 0.400000 0
1.500000 0.400000 0
1.600000 0.400000 0
1.700000 0.400000 0
1.800000 0.400000 0
1.900000 0.400000 0
2.000000 0.400000 0
2.100000 0.400000 0
2.200000 0.400000 0
2.300000 0.400000 0
2.400000 0.400000 0
2.500000 0.400000 0
2.600000 0.400000 0
2.700000 0.400000 0
2.800000 0.400000 0
2.900000 0.400000 0
3.000000 0.400000 0
3.100000 0.400000 0
3.200000 0.400000 0
3.300000 0.400000 0
3.400000 0.400000 0
3.500000 0.400000 0
3.600000 0.400000 0
3.700000 0.400000 0
3.800000 0.400000 0
3.900000 0.400000 0
4.000000 0.400000 0
4.100000 0.400000 0
4.200000 0.400000 0
4.300000 0.400000 0
4.400000 0.400000 0
4.500000 0.400000 0
4.600000 0.400000 0
4.700000 0.400000 0
4.800000 0.400000 0
4.900000 0.400000 0
5.000000 0.400000 0
5.100000 0.400000 0
5.200000 0.400000 0
5.300000 0.400000 0
5.400000 0.400000 0
5.500000 0.400000 0
5.600000 0.400000 0
5.700000 0.400000 0
5.800000 0.400000 0
5.900000 0.400000 0
6.000000 0.400000 0
6.100000 0.400000 0
6.200000 0.400000 0
6.300000 0.400000 0
6.400000 0.400000 0
6.500000 0.400000 0
6.600000 0.400000 0
6.700000 0.400000 0
6.800000 0.400000 0
6.900000 0.400000 0
7.000000 0.400000 0
7.100000 0.400000 0
7.200000 0.400000 0
7.300000 0.400000 0
7.400000 0.400000 0
7.500000 0.400000 0
7.600000 0.400000 0
7.700000 0.400000 0
7.800000 0.400000 0
7.900000 0.400000 0
8.000000 0.400000 0
8.100000 0.400000 0
8.200000 0.400000 0
8.300000 0.400000 0
8.400000 0.400000 0
8.500000 0.400000 0
8.600000 0.400000 0
[...]
POINT_DATA 2121 

VECTORS velocity float
0.500000 0.000000 0
0.000012 0.000000 0
0.000023 0.000000 0
0.000038 0.000000 0
0.000057 0.000000 0
0.000077 0.000000 0
0.000093 0.000000 0
0.000101 0.000000 0
0.000093 0.000000 0
0.000062 0.000000 0
-0.000001 0.000000 0
-0.000101 0.000000 0
-0.000241 0.000000 0
-0.000420 0.000000 0
-0.000631 0.000000 0
-0.000857 0.000000 0
-0.001067 0.000000 0
-0.001214 0.000000 0
-0.001242 0.000000 0
-0.001102 0.000000 0
-0.000780 0.000000 0
-0.000298 0.000000 0
0.000287 0.000000 0
0.000906 0.000000 0
0.001495 0.000000 0
0.002001 0.000000 0
0.002386 0.000000 0
0.002624 0.000000 0
0.002697 0.000000 0
0.002596 0.000000 0
0.002313 0.000000 0
0.001846 0.000000 0
0.001195 0.000000 0
0.000360 0.000000 0
-0.000658 0.000000 0
-0.001835 0.000000 0
-0.003104 0.000000 0
-0.004345 0.000000 0
-0.005371 0.000000 0
-0.005965 0.000000 0
-0.005947 0.000000 0
-0.005244 0.000000 0
-0.003943 0.000000 0
-0.002279 0.000000 0
-0.000546 0.000000 0
0.001047 0.000000 0
0.002405 0.000000 0
0.003469 0.000000 0
0.004216 0.000000 0
0.004654 0.000000 0
0.004809 0.000000 0
0.004718 0.000000 0
0.004416 0.000000 0
0.003935 0.000000 0
0.003296 0.000000 0
0.002504 0.000000 0
0.001555 0.000000 0
0.000437 0.000000 0
-0.000849 0.000000 0
-0.002270 0.000000 0
-0.003762 0.000000 0
-0.005247 0.000000 0
-0.006635 0.000000 0
-0.007820 0.000000 0
-0.008676 0.000000 0
-0.009070 0.000000 0
-0.008895 0.000000 0
-0.008086 0.000000 0
-0.006648 0.000000 0
-0.004680 0.000000 0
-0.002402 0.000000 0
-0.000133 0.000000 0
0.001909 0.000000 0
0.003617 0.000000 0
0.004882 0.000000 0
0.005622 0.000000 0
0.005811 0.000000 0
0.005490 0.000000 0
0.004769 0.000000 0
0.003802 0.000000 0
0.002748 0.000000 0
0.001730 0.000000 0
0.000810 0.000000 0
-0.000009 0.000000 0
-0.000738 0.000000 0
-0.001342 0.000000 0
-0.001763 0.000000 0
-0.001952 0.000000 0
-0.001894 0.000000 0
-0.001614 0.000000 0
-0.001189 0.000000 0
-0.000717 0.000000 0
-0.000290 0.000000 0
0.000051 0.000000 0
0.000284 0.000000 0
0.000398 0.000000 0
0.000408 0.000000 0
0.000347 0.000000 0
0.000263 0.000000 0
0.000204 0.000000 0
0.000208 0.000000 0
1.000000 -0.000000 0
1.000930 -0.005621 0
1.008474 -0.011407 0
1.021906 -0.017423 0
1.041559 -0.023585 0
1.067628 -0.029568 0
1.099857 -0.034746 0
1.137137 -0.038242 0
1.177211 -0.039177 0
1.216604 -0.037256 0
1.252186 -0.033079 0
1.282127 -0.027690 0
1.305892 -0.022092 0
1.323876 -0.017022 0
1.337049 -0.012918 0
1.346659 -0.009932 0
1.353963 -0.007945 0
1.359949 -0.006587 0
1.365068 -0.005304 0
1.369053 -0.003514 0
1.370975 -0.000816 0
1.369613 0.002866 0
1.363897 0.007302 0
1.353203 0.012072 0
1.337444 0.016710 0
1.317024 0.020805 0
1.292719 0.024045 0
1.265558 0.026215 0
1.236728 0.027179 0
1.207507 0.026860 0
1.179221 0.025222 0
1.153211 0.022251 0
1.130818 0.017951 0
1.113368 0.012324 0
1.102178 0.005387 0
1.098546 -0.002717 0
1.103629 -0.011591 0
1.118088 -0.020480 0
1.141595 -0.028231 0
1.172448 -0.033475 0
1.207517 -0.035016 0
1.242563 -0.032275 0
1.272943 -0.025591 0
1.294660 -0.016211 0
1.305409 -0.005833 0
1.304974 0.004141 0
1.294451 0.012903 0
1.275504 0.020007 0
1.250089 0.025234 0
1.220223 0.028560 0
1.187826 0.030090 0
1.154626 0.030004 0
1.122131 0.028508 0
1.091645 0.025791 0
1.064327 0.021992 0
1.041267 0.017181 0
1.023539 0.011359 0
1.012187 0.004514 0
1.008130 -0.003297 0
1.012042 -0.011841 0
1.024257 -0.020713 0
1.044789 -0.029421 0
1.073380 -0.037446 0
1.109410 -0.044205 0
1.151676 -0.049031 0
1.198218 -0.051247 0
1.246344 -0.050291 0
1.292843 -0.045860 0
1.334323 -0.038021 0
1.367579 -0.027335 0
1.390016 -0.014943 0
1.400116 -0.002425 0
1.397876 0.008953 0
1.384663 0.018494 0
1.362493 0.025657 0
1.333880 0.030025 0
1.301589 0.031433 0
1.268357 0.030052 0
1.236622 0.026401 0
1.208327 0.021251 0
1.184842 0.015437 0
1.167013 0.009644 0
1.155267 0.004277 0
1.149677 -0.000576 0
1.149945 -0.004906 0
1.155321 -0.008534 0
1.164607 -0.011153 0
1.176274 -0.012484 0
1.188634 -0.012423 0
1.200018 -0.011115 0
1.209015 -0.008958 0
1.214687 -0.006509 0
1.216710 -0.004292 0
1.215308 -0.002635 0
1.211018 -0.001702 0
1.204568 -0.001564 0
1.196801 -0.002168 0
1.188611 -0.003318 0
1.180858 -0.004834 0
1.174217 -0.003300 0
1.169139 -0.000932 0
1.000000 -0.000006 0
1.001328 -0.011149 0
1.009099 -0.022663 0
1.022736 -0.034773 0
1.042871 -0.047408 0
1.070159 -0.059985 0
1.104904 -0.071196 0
1.146374 -0.079041 0
1.192218 -0.081154 0
1.236798 -0.076662 0
1.275643 -0.067210 0
1.306906 -0.055393 0
1.330562 -0.043435 0
1.347543 -0.032843 0
1.359281 -0.024470 0
1.367431 -0.018601 0
1.373653 -0.014976 0
1.379318 -0.012792 0
1.385134 -0.010791 0
1.390759 -0.007594 0
1.394765 -0.002247 0
1.395282 0.005391 0
1.390826 0.014723 0
1.380619 0.024766 0
1.364631 0.034492 0
1.343419 0.043038 0
1.317921 0.049779 0
1.289295 0.054305 0
1.258816 0.056365 0
1.227821 0.055821 0
1.197677 0.052609 0
1.169751 0.046716 0
1.145396 0.038157 0
1.125934 0.026954 0
1.112670 0.013135 0
1.106933 -0.003138 0
1.110033 -0.021228 0
1.122815 -0.039653 0
1.145160 -0.056047 0
1.175718 -0.067608 0
1.211945 -0.071801 0
1.250118 -0.067113 0
1.285466 -0.053784 0
1.312863 -0.034152 0
1.328285 -0.012001 0
1.330403 0.009271 0
1.320602 0.027784 0
1.301046 0.042676 0
1.274112 0.053594 0
1.242126 0.060576 0
1.207209 0.063910 0
1.171199 0.064009 0
1.135660 0.061295 0
1.101936 0.056118 0
1.071235 0.048692 0
1.044684 0.039102 0
1.023307 0.027393 0
1.007896 0.013723 0
0.998884 -0.001542 0
0.996406 -0.017814 0
1.000613 -0.034433 0
1.011816 -0.050809 0
1.030546 -0.066308 0
1.057136 -0.079983 0
1.091132 -0.090495 0
1.130994 -0.096354 0
1.174225 -0.096311 0
1.217754 -0.089665 0
1.258358 -0.076422 0
1.292991 -0.057380 0
1.318987 -0.034224 0
1.334253 -0.009546 0
1.337716 0.013766 0
1.330063 0.033697 0
1.312974 0.049096 0
1.288663 0.059217 0
1.259574 0.063837 0
1.228151 0.063281 0
1.196689 0.058343 0
1.167267 0.050094 0
1.141706 0.039627 0
1.121486 0.027888 0
1.107607 0.015650 0
1.100452 0.003636 0
1.099698 -0.007331 0
1.104467 -0.016348 0
1.113461 -0.022640 0
1.125210 -0.025713 0
1.138151 -0.025430 0
1.150632 -0.022068 0
1.160985 -0.016355 0
1.167714 -0.009381 0
1.169785 -0.002307 0
1.166923 0.004005 0
1.159557 0.009053 0
1.148376 0.012531 0
1.134285 0.014271 0
1.118390 0.014257 0
1.101994 0.012708 0
1.086397 0.010032 0
1.077311 0.008502 0
1.000000 -0.000011 0
1.001086 -0.016407 0
1.008192 -0.033513 0
1.020987 -0.051893 0
1.040602 -0.071705 0
1.068548 -0.092299 0
1.106340 -0.111659 0
1.154374 -0.126254 0
1.211234 -0.130298 0
1.264575 -0.121380 0
1.307404 -0.103886 0
1.338879 -0.083306 0
1.360452 -0.063427 0
1.374082 -0.046439 0
1.381891 -0.033504 0
1.386122 -0.025002 0
1.389065 -0.020530 0
1.392825 -0.018766 0
1.398783 -0.017443 0
1.406718 -0.013843 0
1.414297 -0.006038 0
1.418097 0.006107 0
1.415688 0.021268 0
1.406091 0.037569 0
1.389472 0.053212 0
1.366727 0.066817 0
1.339099 0.077471 0
1.307957 0.084622 0
1.274709 0.087955 0
1.240777 0.087301 0
1.207584 0.082594 0
1.176542 0.073835 0
1.149024 0.061071 0
1.126328 0.044351 0
1.109611 0.023690 0
1.099841 -0.000777 0
1.097904 -0.028170 0
1.104572 -0.056305 0
1.120010 -0.081833 0
1.143839 -0.100958 0
1.175317 -0.110114 0
1.212738 -0.106494 0
1.252553 -0.089033 0
1.289147 -0.059728 0
1.315891 -0.024072 0
1.327691 0.011126 0
1.324392 0.041562 0
1.308749 0.065799 0
1.283724 0.083456 0
1.252146 0.094765 0
1.216534 0.100320 0
1.179036 0.100856 0
1.141446 0.097073 0
1.105271 0.089518 0
1.071786 0.078547 0
1.042027 0.064411 0
1.016649 0.047449 0
0.995782 0.028238 0
0.979097 0.007495 0
0.966314 -0.014267 0
0.958084 -0.036821 0
0.956225 -0.060053 0
0.962889 -0.083463 0
0.979414 -0.105488 0
1.005492 -0.123588 0
1.039238 -0.135038 0
1.077754 -0.137748 0
1.117755 -0.130690 0
1.156057 -0.113957 0
1.189856 -0.088662 0
1.216826 -0.056903 0
1.235109 -0.021851 0
1.243386 0.012446 0
1.241569 0.042538 0
1.230825 0.066359 0
1.212964 0.082727 0
1.190124 0.091248 0
1.164562 0.092240 0
1.138522 0.086586 0
1.114111 0.075536 0
1.093105 0.060521 0
1.076695 0.043046 0
1.065301 0.024613 0
1.058624 0.006635 0
1.056053 -0.009620 0
1.057231 -0.022994 0
1.061869 -0.032593 0
1.069665 -0.037873 0
1.080076 -0.038543 0
1.092118 -0.034647 0
1.104332 -0.026738 0
1.114942 -0.016006 0
1.122216 -0.004199 0
1.124997 0.006895 0
1.123287 0.016147 0
1.117712 0.023010 0
1.109098 0.027120 0
1.098453 0.028276 0
1.086974 0.026462 0
1.076102 0.020685 0
1.068977 0.016680 0
1.000000 -0.000015 0
1.000609 -0.021028 0
1.006337 -0.043262 0
1.017100 -0.067881 0
1.034631 -0.095668 0
1.061677 -0.126421 0
1.101971 -0.157719 0
1.158802 -0.184633 0
1.236236 -0.192053 0
1.301104 -0.173530 0
1.344890 -0.142212 0
1.372044 -0.109139 0
1.387289 -0.079336 0
1.393794 -0.054980 0
1.394167 -0.037208 0
1.391024 -0.026474 0
1.387227 -0.022378 0
1.385897 -0.023208 0
1.389938 -0.025382 0
1.400243 -0.023805 0
1.413683 -0.014323 0
1.423968 0.003302 0
1.425904 0.026031 0
1.418338 0.050284 0
1.401961 0.073157 0
1.378297 0.092713 0
1.349019 0.107851 0
1.315714 0.117997 0
1.279885 0.122847 0
1.242997 0.122248 0
1.206512 0.116146 0
1.171873 0.104578 0
1.140464 0.087673 0
1.113510 0.065669 0
1.091790 0.038924 0
1.075150 0.007871 0
1.062633 -0.026656 0
1.054415 -0.062457 0
1.052145 -0.096013 0
1.058215 -0.123613 0
1.075413 -0.141398 0
1.104865 -0.145047 0
1.144645 -0.130891 0
1.189617 -0.098188 0
1.232005 -0.051242 0
1.262937 0.000072 0
1.276484 0.046028 0
1.274324 0.082646 0
1.259661 0.109499 0
1.235649 0.127067 0
1.205162 0.136322 0
1.170714 0.138399 0
1.134446 0.134362 0
1.098144 0.125079 0
1.063206 0.111238 0
1.030502 0.093541 0
1.000163 0.072940 0
0.971600 0.050577 0
0.944192 0.027228 0
0.918493 0.002501 0
0.896948 -0.025042 0
0.883637 -0.056312 0
0.881972 -0.090195 0
0.892783 -0.123284 0
0.914551 -0.151016 0
0.944479 -0.169313 0
0.979293 -0.175527 0
1.015705 -0.168666 0
1.050733 -0.149220 0
1.081934 -0.118847 0
1.107476 -0.080174 0
1.126066 -0.036804 0
1.136771 0.006608 0
1.139197 0.045561 0
1.134046 0.077003 0
1.122668 0.099220 0
1.106783 0.111541 0
1.088291 0.114185 0
1.069081 0.108097 0
1.050793 0.094814 0
1.034522 0.076346 0
1.020600 0.054994 0
1.008709 0.033023 0
0.998354 0.012186 0
0.989462 -0.006635 0
0.982816 -0.022862 0
0.979958 -0.035772 0
0.981940 -0.044618 0
0.988893 -0.048581 0
1.000063 -0.047021 0
1.014056 -0.039877 0
1.029083 -0.027963 0
1.043179 -0.013060 0
1.054452 0.002236 0
1.061610 0.015641 0
1.064734 0.026021 0
1.064436 0.032831 0
1.061494 0.035683 0
1.056857 0.034362 0
1.051640 0.027332 0
1.047325 0.022315 0
1.000000 -0.000020 0
0.999806 -0.024430 0
1.003119 -0.050702 0
1.009945 -0.080886 0
1.022427 -0.116981 0
1.044584 -0.160336 0
1.083397 -0.209483 0
1.148476 -0.261217 0
1.262048 -0.273297 0
1.332689 -0.230732 0
1.363779 -0.175524 0
1.375859 -0.126403 0
1.377849 -0.085874 0
1.372538 -0.054015 0
1.361762 -0.031432 0
1.347531 -0.018759 0
1.332395 -0.016100 0
1.319953 -0.022175 0
1.315705 -0.032487 0
1.324194 -0.038286 0
1.343628 -0.030460 0
1.365531 -0.006812 0
1.378009 0.026200 0
1.377315 0.060814 0
1.365534 0.092555 0
1.345245 0.119061 0
1.318525 0.139356 0
1.286950 0.153059 0
1.251886 0.159974 0
1.214680 0.159976 0
1.176718 0.153020 0
1.139378 0.139185 0
1.103932 0.118736 0
1.071384 0.092327 0
1.041971 0.061352 0
1.014129 0.027682 0
0.984484 -0.008134 0
0.951545 -0.046515 0
0.921813 -0.086330 0
0.905672 -0.124924 0
0.908913 -0.157463 0
0.931641 -0.176424 0
0.970543 -0.174483 0
1.020464 -0.147785 0
1.074818 -0.098090 0
1.125433 -0.034051 0
1.162749 0.029477 0
1.182323 0.081925 0
1.186571 0.121433 0
1.178307 0.148565 0
1.160315 0.164557 0
1.135196 0.170874 0
1.105277 0.168945 0
1.072502 0.160061 0
1.038209 0.145491 0
1.002824 0.126756 0
0.965837 0.105653 0
0.926709 0.083511 0
0.886664 0.059905 0
0.849770 0.032279 0
0.821513 -0.002662 0
0.805923 -0.045774 0
0.804203 -0.093308 0
0.814692 -0.138765 0
0.834636 -0.175981 0
0.861238 -0.200478 0
0.891799 -0.209672 0
0.923646 -0.202827 0
0.954256 -0.180883 0
0.981552 -0.146103 0
1.004102 -0.101733 0
1.021096 -0.051844 0
1.032120 -0.001384 0
1.036892 0.044566 0
1.035789 0.082191 0
1.029691 0.109292 0
1.019754 0.124926 0
1.007191 0.129244 0
0.992998 0.123386 0
0.977675 0.109397 0
0.961182 0.090017 0
0.943340 0.068160 0
0.924567 0.046162 0
0.906344 0.025184 0
0.890858 0.005220 0
0.880037 -0.014188 0
0.875400 -0.032415 0
0.877428 -0.047505 0
0.885551 -0.057364 0
0.898642 -0.060509 0
0.915365 -0.056456 0
0.934301 -0.045826 0
0.953939 -0.030266 0
0.972632 -0.012235 0
0.988545 0.005168 0
1.000508 0.019487 0
1.008639 0.029663 0
1.013463 0.035156 0
1.015606 0.035618 0
1.015774 0.029519 0
1.014298 0.024981 0
1.000000 -0.000024 0
0.998641 -0.025834 0
0.998345 -0.054099 0
0.998811 -0.087887 0
1.001843 -0.131005 0
1.011670 -0.188089 0
1.037921 -0.262310 0
1.100286 -0.363982 0
1.263119 -0.376964 0
1.310639 -0.275958 0
1.298156 -0.186080 0
1.280107 -0.123907 0
1.263168 -0.076713 0
1.244389 -0.039591 0
1.220390 -0.012899 0
1.191132 0.002195 0
1.160040 0.004502 0
1.131314 -0.007216 0
1.109561 -0.030322 0
1.103928 -0.052426 0
1.121345 -0.056358 0
1.157236 -0.031777 0
1.195208 0.013550 0
1.216961 0.062061 0
1.223256 0.104529 0
1.218995 0.139023 0
1.206422 0.165448 0
1.186691 0.183938 0
1.160777 0.194419 0
1.129826 0.196717 0
1.095126 0.190749 0
1.057754 0.176666 0
1.017746 0.154969 0
0.973236 0.126932 0
0.921392 0.095481 0
0.862451 0.064660 0
0.803106 0.035230 0
0.753482 -0.000484 0
0.722061 -0.050838 0
0.712773 -0.111410 0
0.723642 -0.168065 0
0.751006 -0.207376 0
0.791641 -0.220412 0
0.842516 -0.203160 0
0.900003 -0.156910 0
0.959348 -0.088557 0
1.013746 -0.011560 0
1.053934 0.058127 0
1.078151 0.112818 0
1.088103 0.152625 0
1.085831 0.178735 0
1.073480 0.192738 0
1.053069 0.196358 0
1.026192 0.191450 0
0.993651 0.180219 0
0.955372 0.165216 0
0.911276 0.148356 0
0.863237 0.129052 0
0.816482 0.103470 0
0.778225 0.066954 0
0.753963 0.018107 0
0.744496 -0.039700 0
0.746970 -0.099662 0
0.757955 -0.154415 0
0.774966 -0.198260 0
0.796374 -0.227174 0
0.820765 -0.238633 0
0.846459 -0.231821 0
0.871506 -0.207824 0
0.894082 -0.169391 0
0.912924 -0.120416 0
0.927462 -0.065520 0
0.937613 -0.009885 0
0.943261 0.041194 0
0.944523 0.083506 0
0.941727 0.114558 0
0.935229 0.133343 0
0.925190 0.140242 0
0.911427 0.136915 0
0.893580 0.125932 0
0.871735 0.109983 0
0.847215 0.090911 0
0.822842 0.069321 0
0.802179 0.045198 0
0.788177 0.018974 0
0.782079 -0.008103 0
0.783262 -0.033861 0
0.790406 -0.055466 0
0.802220 -0.070492 0
0.817697 -0.077533 0
0.836032 -0.076233 0
0.856461 -0.067235 0
0.878107 -0.052089 0
0.899904 -0.033067 0
0.920581 -0.012933 0
0.938519 0.005230 0
0.952748 0.019179 0
0.963321 0.028018 0
0.970547 0.031353 0
0.974740 0.027942 0
0.975545 0.025021 0
1.000000 -0.000028 0
0.997221 -0.024461 0
0.992420 -0.051570 0
0.984436 -0.085082 0
0.973383 -0.130537 0
0.960736 -0.197113 0
0.952814 -0.298797 0
0.971752 -0.487113 0
1.130607 -0.484348 0
1.118646 -0.266467 0
1.017358 -0.145690 0
0.962899 -0.092113 0
0.933233 -0.050855 0
0.903879 -0.011936 0
0.860623 0.021127 0
0.806107 0.040893 0
0.747537 0.043019 0
0.695373 0.027605 0
0.661057 -0.005800 0
0.656941 -0.050768 0
0.689543 -0.084466 0
0.750696 -0.081373 0
0.827914 -0.034223 0
0.900692 0.032068 0
0.951035 0.089823 0
0.982171 0.135197 0
0.999263 0.170961 0
1.003622 0.198006 0
0.996088 0.216141 0
0.977514 0.224928 0
0.948377 0.224394 0
0.908181 0.215868 0
0.855380 0.202555 0
0.789123 0.187984 0
0.713097 0.171440 0
0.638591 0.145270 0
0.581831 0.100136 0
0.554759 0.033832 0
0.555535 -0.046319 0
0.572386 -0.127203 0
0.597032 -0.196393 0
0.627115 -0.245121 0
0.663576 -0.266691 0
0.707713 -0.256846 0
0.759224 -0.215619 0
0.815729 -0.148492 0
0.873186 -0.065806 0
0.924539 0.016822 0
0.962510 0.086566 0
0.986720 0.140187 0
0.997937 0.178481 0
0.997329 0.202938 0
0.986070 0.215536 0
0.964963 0.218781 0
0.934313 0.215613 0
0.894607 0.208432 0
0.848192 0.197089 0
0.800636 0.177607 0
0.759564 0.144219 0
0.730986 0.094100 0
0.716467 0.030369 0
0.713640 -0.039479 0
0.718331 -0.107464 0
0.727366 -0.167459 0
0.739156 -0.215098 0
0.753210 -0.246974 0
0.769388 -0.260455 0
0.787189 -0.254267 0
0.805435 -0.229204 0
0.822582 -0.188218 0
0.837335 -0.135811 0
0.849037 -0.077231 0
0.857539 -0.017880 0
0.862732 0.036957 0
0.864401 0.083027 0
0.862286 0.117888 0
0.855946 0.140766 0
0.844791 0.152349 0
0.828408 0.154298 0
0.807225 0.148392 0
0.783139 0.135684 0
0.759439 0.116356 0
0.739755 0.090500 0
0.726679 0.059151 0
0.721085 0.024622 0
0.722390 -0.009971 0
0.728895 -0.041440 0
0.738932 -0.067161 0
0.751569 -0.085352 0
0.766437 -0.095018 0
0.783408 -0.095919 0
0.802315 -0.088599 0
0.822770 -0.074407 0
0.844092 -0.055406 0
0.865348 -0.034145 0
0.885387 -0.013379 0
0.902763 0.004163 0
0.916604 0.016660 0
0.926792 0.023501 0
0.933355 0.023823 0
0.935666 0.023160 0
1.000000 -0.000031 0
0.995842 -0.019940 0
0.986598 -0.042012 0
0.969911 -0.069548 0
0.943116 -0.108003 0
0.901424 -0.168218 0
0.836041 -0.274024 0
0.731369 -0.542473 0
0.547262 -0.524556 0
0.000408 -0.163408 0
0.401111 -0.031030 0
0.334591 -0.040479 0
0.331387 -0.018392 0
0.331850 0.032320 0
0.305024 0.084174 0
0.254760 0.114583 0
0.199082 0.114539 0
0.157846 0.078566 0
0.150646 0.007413 0
0.182776 -0.081610 0
0.243859 -0.150812 0
0.323705 -0.170846 0
0.418664 -0.137144 0
0.525166 -0.061758 0
0.622289 0.022352 0
0.693938 0.090097 0
0.742579 0.143300 0
0.771734 0.186415 0
0.782305 0.219829 0
0.774558 0.243730 0
0.748225 0.259384 0
0.703270 0.268965 0
0.642287 0.273330 0
0.573893 0.268516 0
0.513133 0.245315 0
0.475084 0.195229 0
0.465951 0.118364 0
0.480861 0.025114 0
0.507374 -0.069163 0
0.534219 -0.153605 0
0.557545 -0.223492 0
0.578427 -0.274617 0
0.600751 -0.301708 0
0.629144 -0.299506 0
0.666518 -0.265623 0
0.712464 -0.203218 0
0.763668 -0.121068 0
0.815258 -0.031895 0
0.859244 0.049939 0
0.891517 0.116500 0
0.911443 0.167429 0
0.919057 0.203908 0
0.914563 0.228025 0
0.898166 0.242509 0
0.870509 0.249877 0
0.833895 0.250638 0
0.793453 0.241629 0
0.756466 0.216983 0
0.729253 0.172422 0
0.714119 0.109353 0
0.709308 0.034755 0
0.711318 -0.042262 0
0.716618 -0.114085 0
0.722756 -0.175938 0
0.728630 -0.224802 0
0.734356 -0.258104 0
0.740826 -0.273309 0
0.748899 -0.268565 0
0.758612 -0.243915 0
0.769039 -0.201990 0
0.778868 -0.147569 0
0.787058 -0.086421 0
0.793018 -0.024278 0
0.796386 0.033634 0
0.796646 0.083255 0
0.793177 0.122315 0
0.785304 0.150139 0
0.772677 0.167082 0
0.755853 0.173784 0
0.736711 0.170504 0
0.718231 0.157071 0
0.703491 0.133597 0
0.694503 0.101384 0
0.691714 0.063170 0
0.694351 0.022565 0
0.701050 -0.016611 0
0.710113 -0.051100 0
0.720381 -0.078838 0
0.731403 -0.098695 0
0.743278 -0.110069 0
0.756408 -0.112809 0
0.771199 -0.107296 0
0.787793 -0.094564 0
0.805914 -0.076343 0
0.824867 -0.054926 0
0.843663 -0.032883 0
0.861123 -0.012736 0
0.875906 0.003292 0
0.887175 0.013904 0
0.894659 0.018370 0
0.897732 0.020178 0
1.000000 -0.000032 0
0.994899 -0.012746 0
0.982627 -0.026338 0
0.960013 -0.042299 0
0.922469 -0.062748 0
0.860808 -0.090736 0
0.755455 -0.129440 0
0.563242 -0.199031 0
0.072903 -0.000485 0
-0.531280 0.123921 0
0.000000 -0.000074 0
-0.030584 -0.033926 0
-0.049368 -0.048812 0
-0.072449 0.013729 0
-0.095174 0.097520 0
-0.122714 0.146137 0
-0.144155 0.139235 0
-0.142835 0.075343 0
-0.107519 -0.031428 0
-0.055173 -0.144678 0
0.001740 -0.226092 0
0.066289 -0.256877 0
0.142652 -0.236383 0
0.233917 -0.172255 0
0.335614 -0.079647 0
0.427114 0.014210 0
0.494421 0.092467 0
0.538579 0.157582 0
0.560895 0.212619 0
0.561710 0.258310 0
0.542252 0.294985 0
0.506955 0.321108 0
0.465545 0.331234 0
0.432215 0.316439 0
0.419908 0.269551 0
0.433174 0.191754 0
0.466474 0.093662 0
0.508097 -0.008288 0
0.545070 -0.100375 0
0.572636 -0.178072 0
0.589778 -0.241299 0
0.598145 -0.289024 0
0.602215 -0.318106 0
0.608677 -0.323311 0
0.624107 -0.299638 0
0.651729 -0.246340 0
0.689919 -0.169297 0
0.733721 -0.079453 0
0.776521 0.009609 0
0.811014 0.087291 0
0.834826 0.150244 0
0.846966 0.199120 0
0.847008 0.235729 0
0.835215 0.262137 0
0.813318 0.279186 0
0.785423 0.284791 0
0.757799 0.273820 0
0.736632 0.241109 0
0.725096 0.185868 0
0.722479 0.113347 0
0.725864 0.032472 0
0.732080 -0.047487 0
0.738266 -0.119600 0