# vtk DataFile Version 2.0
generated by CFD-lab course output (written by Tobias Neckel) 
ASCII

DATASET STRUCTURED_GRID
DIMENSIONS  101 21 1 
POINTS 2121 float

0.000000 0.000000 0
0.100000 0.000000 0
0.200000 0.000000 0
0.300000 0.000000 0
0.400000 0.000000 0
0.500000 0.000000 0
0.600000 0.000000 0
0.700000 0.000000 0
0.800000 0.000000 0
0.900000 0.000000 0
1.000000 0.000000 0
1.100000 0.000000 0
1.200000 0.000000 0
1.300000 0.000000 0
1.400000 0.000000 0
1.500000 0.000000 0
1.600000 0.000000 0
1.700000 0.000000 0
1.800000 0.000000 0
1.900000 0.000000 0
2.000000 0.000000 0
2.100000 0.000000 0
2.200000 0.000000 0
2.300000 0.000000 0
2.400000 0.000000 0
2.500000 0.000000 0
2.600000 0.000000 0
2.700000 0.000000 0
2.800000 0.000000 0
2.900000 0.000000 0
3.000000 0.000000 0
3.100000 0.000000 0
3.200000 0.000000 0
3.300000 0.000000 0
3.400000 0.000000 0
3.500000 0.000000 0
3.600000 0.000000 0
3.700000 0.000000 0
3.800000 0.000000 0
3.900000 0.000000 0
4.000000 0.000000 0
4.100000 0.000000 0
4.200000 0.000000 0
4.300000 0.000000 0
4.400000 0.000000 0
4.500000 0.000000 0
4.600000 0.000000 0
4.700000 0.000000 0
4.800000 0.000000 0
4.900000 0.000000 0
5.000000 0.000000 0
5.100000 0.000000 0
5.200000 0.000000 0
5.300000 0.000000 0
5.400000 0.000000 0
5.500000 0.000000 0
5.600000 0.000000 0
5.700000 0.000000 0
5.800000 0.000000 0
5.900000 0.000000 0
6.000000 0.000000 0
6.100000 0.000000 0
6.200000 0.000000 0
6.300000 0.000000 0
6.400000 0.000000 0
6.500000 0.000000 0
6.600000 0.000000 0
6.700000 0.000000 0
6.800000 0.000000 0
6.900000 0.000000 0
7.000000 0.000000 0
7.100000 0.000000 0
7.200000 0.000000 0
7.300000 0.000000 0
7.400000 0.000000 0
7.500000 0.000000 0
7.600000 0.000000 0
7.700000 0.000000 0
7.800000 0.000000 0
7.900000 0.000000 0
8.000000 0.000000 0
8.100000 0.000000 0
8.200000 0.000000 0
8.300000 0.000000 0
8.400000 0.000000 0
8.500000 0.000000 0
8.600000 0.000000 0
8.700000 0.000000 0
8.800000 0.000000 0
8.900000 0.000000 0
9.000000 0.000000 0
9.100000 0.000000 0
9.200000 0.000000 0
9.300000 0.000000 0
9.400000 0.000000 0
9.500000 0.000000 0
9.600000 0.000000 0
9.700000 0.000000 0
9.800000 0.000000 0
9.900000 0.000000 0
10.000000 0.000000 0
0.000000 0.100000 0
0.100000 0.100000 0
0.200000 0.100000 0
0.300000 0.100000 0
0.400000 0.100000 0
0.500000 0.100000 0
0.600000 0.100000 0
0.700000 0.100000 0
0.800000 0.100000 0
0.900000 0.100000 0
1.000000 0.100000 0
1.100000 0.100000 0
1.200000 0.100000 0
1.300000 0.100000 0
1.400000 0.100000 0
1.500000 0.100000 0
1.600000 0.100000 0
1.700000 0.100000 0
1.800000 0.100000 0
1.900000 0.100000 0
2.000000 0.100000 0
2.100000 0.100000 0
2.200000 0.100000 0
2.300000 0.100000 0
2.400000 0.100000 0
2.500000 0.100000 0
2.600000 0.100000 0
2.700000 0.100000 0
2.800000 0.100000 0
2.900000 0.100000 0
3.000000 0.100000 0
3.100000 0.100000 0
3.200000 0.100000 0
3.300000 0.100000 0
3.400000 0.100000 0
3.500000 0.100000 0
3.600000 0.100000 0
3.700000 0.100000 0
3.800000 0.100000 0
3.900000 0.100000 0
4.000000 0.100000 0
4.100000 0.100000 0
4.200000 0.100000 0
4.300000 0.100000 0
4.400000 0.100000 0
4.500000 0.100000 0
4.600000 0.100000 0
4.700000 0.100000 0
4.800000 0.100000 0
4.900000 0.100000 0
5.000000 0.100000 0
5.100000 0.100000 0
5.200000 0.100000 0
5.300000 0.100000 0
5.400000 0.100000 0
5.500000 0.100000 0
5.600000 0.100000 0
5.700000 0.100000 0
5.800000 0.100000 0
5.900000 0.100000 0
6.000000 0.100000 0
6.100000 0.100000 0
6.200000 0.100000 0
6.300000 0.100000 0
6.400000 0.100000 0
6.500000 0.100000 0
6.600000 0.100000 0
6.700000 0.100000 0
6.800000 0.100000 0
6.900000 0.100000 0
7.000000 0.100000 0
7.100000 0.100000 0
7.200000 0.100000 0
7.300000 0.100000 0
7.400000 0.100000 0
7.500000 0.100000 0
7.600000 0.100000 0
7.700000 0.100000 0
7.800000 0.100000 0
7.900000 0.100000 0
8.000000 0.100000 0
8.100000 0.100000 0
8.200000 0.100000 0
8.300000 0.100000 0
8.400000 0.100000 0
8.500000 0.100000 0
8.600000 0.100000 0
8.700000 0.100000 0
8.800000 0.100000 0
8.900000 0.100000 0
9.000000 0.100000 0
9.100000 0.100000 0
9.200000 0.100000 0
9.300000 0.100000 0
9.400000 0.100000 0
9.500000 0.100000 0
9.600000 0.100000 0
9.700000 0.100000 0
9.800000 0.100000 0
9.900000 0.100000 0
10.000000 0.100000 0
0.000000 0.200000 0
0.100000 0.200000 0
0.200000 0.200000 0
0.300000 0.200000 0
0.400000 0.200000 0
0.500000 0.200000 0
0.600000 0.200000 0
0.700000 0.200000 0
0.800000 0.200000 0
0.900000 0.200000 0
1.000000 0.200000 0
1.100000 0.200000 0
1.200000 0.200000 0
1.300000 0.200000 0
1.400000 0.200000 0
1.500000 0.200000 0
1.600000 0.200000 0
1.700000 0.200000 0
1.800000 0.200000 0
1.900000 0.200000 0
2.000000 0.200000 0
2.100000 0.200000 0
2.200000 0.200000 0
2.300000 0.200000 0
2.400000 0.200000 0
2.500000 0.200000 0
2.600000 0.200000 0
2.700000 0.200000 0
2.800000 0.200000 0
2.900000 0.200000 0
3.000000 0.200000 0
3.100000 0.200000 0
3.200000 0.200000 0
3.300000 0.200000 0
3.400000 0.200000 0
3.500000 0.200000 0
3.600000 0.200000 0
3.700000 0.200000 0
3.800000 0.200000 0
3.900000 0.200000 0
4.000000 0.200000 0
4.100000 0.200000 0
4.200000 0.200000 0
4.300000 0.200000 0
4.400000 0.200000 0
4.500000 0.200000 0
4.600000 0.200000 0
4.700000 0.200000 0
4.800000 0.200000 0
4.900000 0.200000 0
5.000000 0.200000 0
5.100000 0.200000 0
5.200000 0.200000 0
5.300000 0.200000 0
5.400000 0.200000 0
5.500000 0.200000 0
5.600000 0.200000 0
5.700000 0.200000 0
5.800000 0.200000 0
5.900000 0.200000 0
6.000000 0.200000 0
6.100000 0.200000 0
6.200000 0.200000 0
6.300000 0.200000 0
6.400000 0.200000 0
6.500000 0.200000 0
6.600000 0.200000 0
6.700000 0.200000 0
6.800000 0.200000 0
6.900000 0.200000 0
7.000000 0.200000 0
7.100000 0.200000 0
7.200000 0.200000 0
7.300000 0.200000 0
7.400000 0.200000 0
7.500000 0.200000 0
7.600000 0.200000 0
7.700000 0.200000 0
7.800000 0.200000 0
7.900000 0.200000 0
8.000000 0.200000 0
8.100000 0.200000 0
8.200000 0.200000 0
8.300000 0.200000 0
8.400000 0.200000 0
8.500000 0.200000 0
8.600000 0.200000 0
8.700000 0.200000 0
8.800000 0.200000 0
8.900000 0.200000 0
9.000000 0.200000 0
9.100000 0.200000 0
9.200000 0.200000 0
9.300000 0.200000 0
9.400000 0.200000 0
9.500000 0.200000 0
9.600000 0.200000 0
9.700000 0.200000 0
9.800000 0.200000 0
9.900000 0.200000 0
10.000000 0.200000 0
0.000000 0.300000 0
0.100000 0.300000 0
0.200000 0.300000 0
0.300000 0.300000 0
0.400000 0.300000 0
0.500000 0.300000 0
0.600000 0.300000 0
0.700000 0.300000 0
0.800000 0.300000 0
0.900000 0.300000 0
1.000000 0.300000 0
1.100000 0.300000 0
1.200000 0.300000 0
1.300000 0.300000 0
1.400000 0.300000 0
1.500000 0.300000 0
1.600000 0.300000 0
1.700000 0.300000 0
1.800000 0.300000 0
1.900000 0.300000 0
2.000000 0.300000 0
2.100000 0.300000 0
2.200000 0.300000 0
2.300000 0.300000 0
2.400000 0.300000 0
2.500000 0.300000 0
2.600000 0.300000 0
2.700000 0.300000 0
2.800000 0.300000 0
2.900000 0.300000 0
3.000000 0.300000 0
3.100000 0.300000 0
3.200000 0.300000 0
3.300000 0.300000 0
3.400000 0.300000 0
3.500000 0.300000 0
3.600000 0.300000 0
3.700000 0.300000 0
3.800000 0.300000 0
3.900000 0.300000 0
4.000000 0.300000 0
4.100000 0.300000 0
4.200000 0.300000 0
4.300000 0.300000 0
4.400000 0.300000 0
4.500000 0.300000 0
4.600000 0.300000 0
4.700000 0.300000 0
4.800000 0.300000 0
4.900000 0.300000 0
5.000000 0.300000 0
5.100000 0.300000 0
5.200000 0.300000 0
5.300000 0.300000 0
5.400000 0.300000 0
5.500000 0.300000 0
5.600000 0.300000 0
5.700000 0.300000 0
5.800000 0.300000 0
5.900000 0.300000 0
6.000000 0.300000 0
6.100000 0.300000 0
6.200000 0.300000 0
6.300000 0.300000 0
6.400000 0.300000 0
6.500000 0.300000 0
6.600000 0.300000 0
6.700000 0.300000 0
6.800000 0.300000 0
6.900000 0.300000 0
7.000000 0.300000 0
7.100000 0.300000 0
7.200000 0.300000 0
7.300000 0.300000 0
7.400000 0.300000 0
7.500000 0.300000 0
7.600000 0.300000 0
7.700000 0.300000 0
7.800000 0.300000 0
7.900000 0.300000 0
8.000000 0.300000 0
8.100000 0.300000 0
8.200000 0.300000 0
8.300000 0.300000 0
8.400000 0.300000 0
8.500000 0.300000 0
8.600000 0.300000 0
8.700000 0.300000 0
8.800000 0.300000 0
8.900000 0.300000 0
9.000000 0.300000 0
9.100000 0.300000 0
9.200000 0.300000 0
9.300000 0.300000 0
9.400000 0.300000 0
9.500000 0.300000 0
9.600000 0.300000 0
9.700000 0.300000 0
9.800000 0.300000 0
9.900000 0.300000 0
10.000000 0.300000 0
0.000000 0.400000 0
0.100000 0.400000 0
0.200000 0.400000 0
0.300000 0.400000 0
0.400000 0.400000 0
0.500000 0.400000 0
0.600000 0.400000 0
0.700000 0.400000 0
0.800000 0.400000 0
0.900000 0.400000 0
1.000000 0.400000 0
1.100000 0.400000 0
1.200000 0.400000 0
1.300000 0.400000 0
1.400000 0.400000 0
1.500000 0.400000 0
1.600000 0.400000 0
1.700000 0.400000 0
1.800000 0.400000 0
1.900000 0.400000 0
2.000000 0.400000 0
2.100000 0.400000 0
2.200000 0.400000 0
2.300000 0.400000 0
2.400000 0.400000 0
2.500000 0.400000 0
2.600000 0.400000 0
2.700000 0.400000 0
2.800000 0.400000 0
2.900000 0.400000 0
3.000000 0.400000 0
3.100000 0.400000 0
3.200000 0.400000 0
3.300000 0.400000 0
3.400000 0.400000 0
3.500000 0.400000 0
3.600000 0.400000 0
3.700000 0.400000 0
3.800000 0.400000 0
3.900000 0.400000 0
4.000000 0.400000 0
4.100000 0.400000 0
4.200000 0.400000 0
4.300000 0.400000 0
4.400000 0.400000 0
4.500000 0.400000 0
4.600000 0.400000 0
4.700000 0.400000 0
4.800000 0.400000 0
4.900000 0.400000 0
5.000000 0.400000 0
5.100000 0.400000 0
5.200000 0.400000 0
5.300000 0.400000 0
5.400000 0.400000 0
5.500000 0.400000 0
5.600000 0.400000 0
5.700000 0.400000 0
5.800000 0.400000 0
5.900000 0.400000 0
6.000000 0.400000 0
6.100000 0.400000 0
6.200000 0.400000 0
6.300000 0.400000 0
6.400000 0.400000 0
6.500000 0.400000 0
6.600000 0.400000 0
6.700000 0.400000 0
6.800000 0.400000 0
6.900000 0.400000 0
7.000000 0.400000 0
7.100000 0.400000 0
7.200000 0.400000 0
7.300000 0.400000 0
7.400000 0.400000 0
7.500000 0.400000 0
7.600000 0.400000 0
7.700000 0.400000 0
7.800000 0.400000 0
7.900000 0.400000 0
8.000000 0.400000 0
8.100000 0.400000 0
8.200000 0.400000 0
8.300000 0.400000 0
8.400000 0.400000 0
8.500000 0.400000 0
8.600000 0.400000 0
[...]
POINT_DATA 2121 

VECTORS velocity float
0.500000 0.000000 0
-0.000000 0.000000 0
-0.000006 0.000000 0
-0.000017 0.000000 0
-0.000035 0.000000 0
-0.000060 0.000000 0
-0.000093 0.000000 0
-0.000132 0.000000 0
-0.000177 0.000000 0
-0.000224 0.000000 0
-0.000267 0.000000 0
-0.000292 0.000000 0
-0.000288 0.000000 0
-0.000238 0.000000 0
-0.000122 0.000000 0
0.000069 0.000000 0
0.000324 0.000000 0
0.000631 0.000000 0
0.000957 0.000000 0
0.001265 0.000000 0
0.001515 0.000000 0
0.001673 0.000000 0
0.001712 0.000000 0
0.001612 0.000000 0
0.001362 0.000000 0
0.000961 0.000000 0
0.000415 0.000000 0
-0.000263 0.000000 0
-0.001057 0.000000 0
-0.001936 0.000000 0
-0.002809 0.000000 0
-0.003547 0.000000 0
-0.003996 0.000000 0
-0.004020 0.000000 0
-0.003556 0.000000 0
-0.002658 0.000000 0
-0.001491 0.000000 0
-0.000256 0.000000 0
0.000937 0.000000 0
0.002001 0.000000 0
0.002876 0.000000 0
0.003536 0.000000 0
0.003977 0.000000 0
0.004203 0.000000 0
0.004223 0.000000 0
0.004044 0.000000 0
0.003670 0.000000 0
0.003099 0.000000 0
0.002325 0.000000 0
0.001333 0.000000 0
0.000126 0.000000 0
-0.001211 0.000000 0
-0.002539 0.000000 0
-0.003790 0.000000 0
-0.004895 0.000000 0
-0.005767 0.000000 0
-0.006304 0.000000 0
-0.006389 0.000000 0
-0.005918 0.000000 0
-0.004847 0.000000 0
-0.003261 0.000000 0
-0.001408 0.000000 0
0.000432 0.000000 0
0.002152 0.000000 0
0.003658 0.000000 0
0.004864 0.000000 0
0.005711 0.000000 0
0.006163 0.000000 0
0.006213 0.000000 0
0.005868 0.000000 0
0.005155 0.000000 0
0.004117 0.000000 0
0.002822 0.000000 0
0.001373 0.000000 0
-0.000072 0.000000 0
-0.001276 0.000000 0
-0.002222 0.000000 0
-0.002963 0.000000 0
-0.003559 0.000000 0
-0.004051 0.000000 0
-0.004457 0.000000 0
-0.004761 0.000000 0
-0.004908 0.000000 0
-0.004807 0.000000 0
-0.004360 0.000000 0
-0.003497 0.000000 0
-0.002235 0.000000 0
-0.000709 0.000000 0
0.000909 0.000000 0
0.002544 0.000000 0
0.004105 0.000000 0
0.005474 0.000000 0
0.006521 0.000000 0
0.007111 0.000000 0
0.007142 0.000000 0
0.006588 0.000000 0
0.005541 0.000000 0
0.004211 0.000000 0
0.002887 0.000000 0
0.001882 0.000000 0
0.001453 0.000000 0
1.000000 0.000002 0
1.002540 -0.004587 0
1.010430 -0.010008 0
1.024107 -0.015957 0
1.044051 -0.022242 0
1.070599 -0.028507 0
1.103638 -0.034115 0
1.142206 -0.038174 0
1.184197 -0.039770 0
1.226240 -0.038547 0
1.265245 -0.035005 0
1.299295 -0.030045 0
1.327594 -0.024455 0
1.350014 -0.018688 0
1.366646 -0.012898 0
1.377541 -0.007077 0
1.382642 -0.001246 0
1.381867 0.004506 0
1.375288 0.010019 0
1.363229 0.015040 0
1.346330 0.019286 0
1.325530 0.022502 0
1.302016 0.024487 0
1.277138 0.025119 0
1.252330 0.024345 0
1.229036 0.022183 0
1.208639 0.018705 0
1.192418 0.014020 0
1.181517 0.008252 0
1.176908 0.001609 0
1.179274 -0.005369 0
1.188741 -0.011773 0
1.204472 -0.016550 0
1.224417 -0.018710 0
1.245464 -0.017672 0
1.264059 -0.013567 0
1.277084 -0.007262 0
1.282595 0.000080 0
1.280007 0.007532 0
1.269693 0.014449 0
1.252617 0.020375 0
1.230072 0.025054 0
1.203478 0.028376 0
1.174267 0.030322 0
1.143835 0.030917 0
1.113525 0.030191 0
1.084641 0.028157 0
1.058454 0.024804 0
1.036198 0.020078 0
1.019032 0.013907 0
1.007962 0.006337 0
1.003765 -0.002119 0
1.006954 -0.010658 0
1.017705 -0.018675 0
1.035780 -0.025700 0
1.060443 -0.031237 0
1.090444 -0.034730 0
1.124003 -0.035590 0
1.158744 -0.033291 0
1.191690 -0.027610 0
1.219464 -0.018967 0
1.238837 -0.008579 0
1.247526 0.002126 0
1.244993 0.012247 0
1.232140 0.021251 0
1.210457 0.028657 0
1.181861 0.034092 0
1.148542 0.037313 0
1.112833 0.038200 0
1.077075 0.036734 0
1.043508 0.032988 0
1.014124 0.027152 0
0.990489 0.019586 0
0.973558 0.010897 0
0.963581 0.002080 0
0.960234 -0.005677 0
0.962823 -0.011836 0
0.970439 -0.016599 0
0.982269 -0.020302 0
0.997691 -0.023229 0
1.016265 -0.025535 0
1.037656 -0.027189 0
1.061451 -0.027950 0
1.086941 -0.027391 0
1.112939 -0.025013 0
1.137711 -0.020468 0
1.159073 -0.013829 0
1.174675 -0.005737 0
1.182482 0.002948 0
1.181470 0.011616 0
1.171891 0.019774 0
1.154645 0.026801 0
1.131237 0.031986 0
1.103750 0.034607 0
1.074728 0.034096 0
1.046896 0.030290 0
1.022723 0.023680 0
1.003911 0.015497 0
0.990982 0.007510 0
0.983199 0.003780 0
0.977359 0.003324 0
1.000000 0.000003 0
1.002851 -0.010438 0
1.011184 -0.021582 0
1.025385 -0.033639 0
1.046150 -0.046510 0
1.074239 -0.059604 0
1.110084 -0.071622 0
1.153107 -0.080565 0
1.201160 -0.084031 0
1.248767 -0.081026 0
1.291539 -0.073016 0
1.327649 -0.062310 0
1.356960 -0.050687 0
1.380010 -0.039034 0
1.397339 -0.027520 0
1.409152 -0.015981 0
1.415235 -0.004306 0
1.415289 0.007367 0
1.409226 0.018646 0
1.397284 0.028963 0
1.380116 0.037700 0
1.358742 0.044310 0
1.334446 0.048386 0
1.308681 0.049676 0
1.282968 0.048089 0
1.258813 0.043677 0
1.237632 0.036603 0
1.220704 0.027108 0
1.209168 0.015497 0
1.204077 0.002230 0
1.206417 -0.011840 0
1.216805 -0.025195 0
1.234806 -0.035665 0
1.258465 -0.040973 0
1.284352 -0.039617 0
1.308150 -0.031593 0
1.325747 -0.018511 0
1.334488 -0.002903 0
1.333869 0.012916 0
1.324708 0.027396 0
1.308359 0.039624 0
1.286381 0.049144 0
1.260344 0.055808 0
1.231729 0.059645 0
1.201903 0.060743 0
1.172129 0.059193 0
1.143592 0.055069 0
1.117393 0.048440 0
1.094518 0.039418 0
1.075769 0.028230 0
1.061701 0.015260 0
1.052698 0.001002 0
1.049301 -0.013947 0
1.052036 -0.028832 0
1.061145 -0.042743 0
1.076539 -0.054668 0
1.097904 -0.063561 0
1.124697 -0.068298 0
1.155880 -0.067681 0
1.189569 -0.060711 0
1.222832 -0.047137 0
1.251808 -0.028051 0
1.272330 -0.006145 0
1.281475 0.015397 0
1.279223 0.034544 0
1.267066 0.050283 0
1.246927 0.061916 0
1.220980 0.069026 0
1.191477 0.071464 0
1.160604 0.069320 0
1.130323 0.062946 0
1.102231 0.053013 0
1.077426 0.040560 0
1.056471 0.026903 0
1.039496 0.013318 0
1.026561 0.000751 0
1.017842 -0.010211 0
1.013233 -0.019453 0
1.012481 -0.027259 0
1.015445 -0.034003 0
1.022207 -0.039971 0
1.033036 -0.045191 0
1.048169 -0.049291 0
1.067517 -0.051494 0
1.090452 -0.050776 0
1.115727 -0.046141 0
1.141487 -0.036973 0
1.165319 -0.023419 0
1.184464 -0.006805 0
1.196546 0.010580 0
1.200648 0.026813 0
1.197391 0.040642 0
1.187956 0.050882 0
1.173890 0.056495 0
1.156909 0.056840 0
1.138658 0.051990 0
1.120512 0.042971 0
1.103478 0.031726 0
1.088230 0.020696 0
1.075184 0.013608 0
1.066277 0.011027 0
1.000000 0.000004 0
1.002442 -0.015782 0
1.009931 -0.032550 0
1.023127 -0.050929 0
1.043216 -0.071102 0
1.071786 -0.092443 0
1.110470 -0.112978 0
1.159814 -0.129240 0
1.218697 -0.135405 0
1.274921 -0.128894 0
1.321629 -0.113865 0
1.358192 -0.095460 0
1.386288 -0.076825 0
1.407863 -0.059083 0
1.424327 -0.042042 0
1.436099 -0.024965 0
1.442567 -0.007381 0
1.442801 0.010514 0
1.436291 0.028022 0
1.423100 0.044146 0
1.403933 0.057825 0
1.379975 0.068167 0
1.352706 0.074542 0
1.323758 0.076591 0
1.294816 0.074207 0
1.267518 0.067514 0
1.243351 0.056810 0
1.223592 0.042481 0
1.209330 0.024876 0
1.201655 0.004362 0
1.201915 -0.018087 0
1.211370 -0.040148 0
1.230096 -0.058195 0
1.256491 -0.068239 0
1.287322 -0.067342 0
1.317894 -0.054953 0
1.342672 -0.033598 0
1.356995 -0.008046 0
1.359331 0.017303 0
1.351257 0.039953 0
1.334935 0.058702 0
1.312507 0.073069 0
1.285874 0.083027 0
1.256637 0.088764 0
1.226129 0.090517 0
1.195486 0.088500 0
1.165711 0.082892 0
1.137703 0.073876 0
1.112256 0.061700 0
1.090029 0.046722 0
1.071500 0.029406 0
1.056924 0.010279 0
1.046323 -0.009998 0
1.039721 -0.030521 0
1.037427 -0.050203 0
1.040022 -0.067993 0
1.048530 -0.082884 0
1.064116 -0.093560 0
1.087303 -0.098156 0
1.117344 -0.094554 0
1.152032 -0.081199 0
1.187831 -0.058072 0
1.220187 -0.027538 0
1.244151 0.005354 0
1.256424 0.035657 0
1.257587 0.060949 0
1.249292 0.080173 0
1.233500 0.092758 0
1.212256 0.098573 0
1.187516 0.097885 0
1.161016 0.091359 0
1.134185 0.080047 0
1.108136 0.065345 0
1.083721 0.048826 0
1.061565 0.031987 0
1.041982 0.015975 0
1.024987 0.001490 0
1.010509 -0.011240 0
0.998609 -0.022516 0
0.989863 -0.032957 0
0.985311 -0.043128 0
0.986113 -0.053152 0
0.993104 -0.062433 0
1.006414 -0.069676 0
1.025402 -0.073226 0
1.048835 -0.071506 0
1.075097 -0.063424 0
1.102334 -0.048718 0
1.128463 -0.028283 0
1.151058 -0.004572 0
1.167711 0.018924 0
1.177629 0.039489 0
1.181274 0.055483 0
1.179429 0.065650 0
1.173026 0.069323 0
1.163014 0.066683 0
1.150338 0.058856 0
1.136020 0.047775 0
1.121269 0.035800 0
1.107430 0.025729 0
1.097367 0.020875 0
1.000000 0.000005 0
1.001903 -0.020378 0
1.007900 -0.042273 0
1.018926 -0.066928 0
1.036761 -0.095172 0
1.064208 -0.126857 0
1.105082 -0.159641 0
1.162789 -0.188775 0
1.241754 -0.199110 0
1.308814 -0.183939 0
1.355673 -0.156285 0
1.387250 -0.126977 0
1.409098 -0.100374 0
1.425322 -0.077077 0
1.438586 -0.055744 0
1.449806 -0.034216 0
1.457687 -0.011010 0
1.459456 0.013643 0
1.453471 0.038346 0
1.439470 0.061318 0
1.418303 0.080820 0
1.391425 0.095533 0
1.360576 0.104598 0
1.327633 0.107560 0
1.294520 0.104325 0
1.263096 0.095139 0
1.234981 0.080526 0
1.211406 0.061126 0
1.193200 0.037434 0
1.180894 0.009655 0
1.175064 -0.021542 0
1.177430 -0.053363 0
1.189162 -0.080770 0
1.210278 -0.098186 0
1.239848 -0.101012 0
1.275091 -0.086939 0
1.310442 -0.057615 0
1.338141 -0.019569 0
1.351501 0.018648 0
1.350425 0.051792 0
1.338307 0.078376 0
1.318255 0.098204 0
1.292807 0.111677 0
1.263933 0.119390 0
1.233147 0.121893 0
1.201644 0.119610 0
1.170424 0.112851 0
1.140363 0.101893 0
1.112236 0.087090 0
1.086618 0.068985 0
1.063671 0.048363 0
1.042909 0.026177 0
1.023287 0.003254 0
1.003932 -0.019937 0
0.985463 -0.043042 0
0.970856 -0.065767 0
0.963879 -0.087649 0
0.967506 -0.107064 0
0.982696 -0.120902 0
1.008447 -0.125434 0
1.042439 -0.117619 0
1.081514 -0.096203 0
1.121828 -0.062464 0
1.158757 -0.020843 0
1.186913 0.021103 0
1.203483 0.057411 0
1.209351 0.085999 0
1.206026 0.106060 0
1.195244 0.117446 0
1.178747 0.120558 0
1.158153 0.116275 0
1.134889 0.105892 0
1.110172 0.091022 0
1.084980 0.073473 0
1.059970 0.055056 0
1.035411 0.037327 0
1.011319 0.021260 0
0.987934 0.006922 0
0.966191 -0.006615 0
0.947781 -0.020706 0
0.934929 -0.036221 0
0.929516 -0.052985 0
0.932273 -0.069594 0
0.942745 -0.083795 0
0.959739 -0.093199 0
0.981766 -0.095839 0
1.007305 -0.090475 0
1.034883 -0.076788 0
1.063040 -0.055533 0
1.090178 -0.028671 0
1.114204 0.000239 0
1.132933 0.027075 0
1.145786 0.049079 0
1.152901 0.064740 0
1.154633 0.073252 0
1.151516 0.074675 0
1.144279 0.069962 0
1.133914 0.060793 0
1.121707 0.049283 0
1.109173 0.037507 0
1.099067 0.031228 0
1.000000 0.000006 0
1.001071 -0.023690 0
1.004580 -0.049577 0
1.011559 -0.079793 0
1.024182 -0.116383 0
1.046493 -0.160759 0
1.085487 -0.211546 0
1.150778 -0.265890 0
1.264802 -0.281414 0
1.335922 -0.242811 0
1.367841 -0.192308 0
1.381622 -0.148900 0
1.387619 -0.114903 0
1.391250 -0.088562 0
1.396294 -0.066519 0
1.404934 -0.044064 0
1.415911 -0.017030 0
1.423029 0.014729 0
1.421122 0.048005 0
1.409406 0.079312 0
1.389061 0.105866 0
1.361861 0.125889 0
1.329667 0.138330 0
1.294451 0.142643 0
1.258308 0.138741 0
1.223320 0.127052 0
1.191224 0.108498 0
1.163000 0.084260 0
1.138774 0.055395 0
1.118038 0.022509 0
1.099621 -0.014610 0
1.083212 -0.054232 0
1.073526 -0.091030 0
1.075541 -0.118916 0
1.092988 -0.132150 0
1.125999 -0.125548 0
1.170259 -0.096656 0
1.217220 -0.049112 0
1.255469 0.005020 0
1.276090 0.053149 0
1.280970 0.090872 0
1.274174 0.118569 0
1.258826 0.137348 0
1.237330 0.148423 0
1.211564 0.152805 0
1.183033 0.151222 0
1.152997 0.144171 0
1.122546 0.132062 0
1.092558 0.115443 0
1.063405 0.095286 0
1.034457 0.073113 0
1.003971 0.050661 0
0.970300 0.028978 0
0.934068 0.007306 0
0.899231 -0.017123 0
0.871992 -0.046405 0
0.857940 -0.079528 0
0.858608 -0.112370 0
0.872509 -0.139090 0
0.897180 -0.154292 0
0.930142 -0.154263 0
0.968972 -0.137460 0
1.011093 -0.104783 0
1.053500 -0.059734 0
1.092206 -0.009073 0
1.121944 0.038508 0
1.141071 0.077628 0
1.150247 0.106863 0
1.150622 0.125850 0
1.143548 0.134976 0
1.130395 0.135216 0
1.112435 0.128027 0
1.090732 0.115252 0
1.066028 0.099028 0
1.038715 0.081554 0
1.009064 0.064623 0
0.977801 0.048965 0
0.946702 0.033887 0
0.918588 0.017637 0
0.896459 -0.001695 0
0.882479 -0.024863 0
0.877505 -0.050498 0
0.880992 -0.075664 0
0.891591 -0.097143 0
0.907813 -0.112248 0
0.928330 -0.119075 0
0.952005 -0.116544 0
0.977822 -0.104455 0
1.004796 -0.083579 0
1.031879 -0.055737 0
1.057830 -0.023833 0
1.080705 0.007904 0
1.098716 0.035514 0
1.111405 0.056801 0
1.118670 0.070707 0
1.120696 0.077036 0
1.117954 0.076457 0
1.111225 0.070345 0
1.101618 0.060540 0
1.090547 0.048368 0
1.080836 0.041492 0
1.000000 0.000006 0
0.999894 -0.024966 0
0.999754 -0.052763 0
1.000300 -0.086530 0
1.003345 -0.130102 0
1.013106 -0.188153 0
1.039137 -0.263909 0
1.100938 -0.368075 0
1.262501 -0.384248 0
1.307810 -0.286982 0
1.292632 -0.201998 0
1.271237 -0.146766 0
1.250984 -0.109996 0
1.233667 -0.085741 0
1.222674 -0.069425 0
1.222689 -0.053831 0
1.236249 -0.029105 0
1.257061 0.008429 0
1.268696 0.051965 0
1.268132 0.093375 0
1.257598 0.128362 0
1.238768 0.154923 0
1.212971 0.172004 0
1.181760 0.178917 0
1.147160 0.175454 0
1.111508 0.162220 0
1.076564 0.140845 0
1.041920 0.113581 0
1.004545 0.082406 0
0.961794 0.048820 0
0.915408 0.013297 0
0.871318 -0.027256 0
0.839254 -0.073089 0
0.829370 -0.117643 0
0.843389 -0.151469 0
0.878507 -0.164216 0
0.930214 -0.148844 0
0.992500 -0.104780 0
1.056718 -0.040219 0
1.110254 0.026291 0
1.144601 0.080291 0
1.162718 0.120348 0
1.167949 0.148521 0
1.162862 0.166650 0
1.149562 0.176189 0
1.129842 0.178175 0
1.105199 0.173336 0
1.076709 0.162331 0
1.044686 0.146230 0
1.008343 0.127083 0
0.966217 0.107796 0
0.918061 0.090333 0
0.867190 0.073159 0
0.820687 0.051135 0
0.786163 0.019038 0
0.767546 -0.024471 0
0.764200 -0.074259 0
0.772747 -0.121627 0
0.789989 -0.159468 0
0.814016 -0.183063 0
0.843849 -0.189409 0
0.878681 -0.177155 0
0.917328 -0.146995 0
0.958049 -0.101959 0
0.998498 -0.047344 0
1.034835 0.008544 0
1.062710 0.057694 0
1.081341 0.096507 0
1.091005 0.124144 0
1.092409 0.140784 0
1.086425 0.147387 0
1.073883 0.145554 0
1.055416 0.137428 0
1.031412 0.125488 0
1.002267 0.112018 0
0.968996 0.098239 0
0.933874 0.083619 0
0.900479 0.066134 0
0.872777 0.043628 0
0.853731 0.015404 0
0.844184 -0.017268 0
0.843121 -0.051498 0
0.848775 -0.083680 0
0.859512 -0.110618 0
0.874147 -0.129940 0
0.891903 -0.140032 0
0.912223 -0.139968 0
0.934588 -0.129580 0
0.958399 -0.109590 0
0.982924 -0.081706 0
1.007268 -0.048588 0
1.030270 -0.013811 0
1.050038 0.018379 0
1.065338 0.044786 0
1.075697 0.063960 0
1.080973 0.075391 0
1.081339 0.079433 0
1.077303 0.077129 0
1.069764 0.069961 0
1.060069 0.058289 0
1.051118 0.051318 0
1.000000 0.000007 0
0.998477 -0.023450 0
0.993827 -0.049983 0
0.985895 -0.083382 0
0.974792 -0.129183 0
0.961956 -0.196539 0
0.953587 -0.299364 0
0.971485 -0.489244 0
1.127570 -0.488285 0
1.111055 -0.272949 0
1.003937 -0.155747 0
0.942545 -0.107251 0
0.897566 -0.077323 0
0.858921 -0.060247 0
0.827907 -0.055538 0
0.815195 -0.057638 0
0.830791 -0.051404 0
0.873729 -0.017722 0
0.923510 0.036930 0
0.956614 0.090406 0
0.975438 0.135227 0
0.981902 0.170513 0
0.975782 0.195335 0
0.957292 0.208452 0
0.926951 0.208992 0
0.885096 0.197646 0
0.831926 0.178089 0
0.768880 0.156288 0
0.700673 0.135530 0
0.635805 0.111658 0
0.585064 0.075879 0
0.557479 0.021933 0
0.553588 -0.049076 0
0.568770 -0.123049 0
0.598763 -0.181291 0
0.641237 -0.212381 0
0.695334 -0.210651 0
0.759981 -0.175613 0
0.832302 -0.112733 0
0.905771 -0.034735 0
0.967494 0.038407 0
1.010808 0.095220 0
1.038344 0.137202 0
1.052246 0.166808 0
1.054289 0.185824 0
1.046031 0.195583 0
1.028626 0.197302 0
1.002489 0.192574 0
0.967096 0.183808 0
0.921703 0.173754 0
0.867532 0.163395 0
0.810193 0.149688 0
0.759228 0.126354 0
0.723683 0.088336 0
0.707360 0.036023 0
0.707684 -0.024436 0
0.717794 -0.084722 0
0.732446 -0.138153 0
0.749488 -0.180355 0
0.768874 -0.208150 0
0.791532 -0.218928 0
0.818384 -0.210941 0
0.849592 -0.184155 0
0.884293 -0.140906 0
0.920780 -0.085860 0
0.956732 -0.025707 0
0.988037 0.031121 0
1.011905 0.078567 0
1.027644 0.114781 0
1.035186 0.139555 0
1.034746 0.153742 0
1.026587 0.159035 0
1.010945 0.157722 0
0.988223 0.152174 0
0.959505 0.143968 0
0.927130 0.133014 0
0.894739 0.117481 0
0.866423 0.094983 0
0.845358 0.064385 0
0.832868 0.026899 0
0.828486 -0.014253 0
0.830477 -0.055090 0
0.836913 -0.092055 0
0.846396 -0.122515 0
0.858149 -0.144640 0
0.871878 -0.157151 0
0.887537 -0.159229 0
0.905093 -0.150630 0
0.924336 -0.131915 0
0.944799 -0.104607 0
0.965775 -0.071178 0
0.986345 -0.034866 0
1.005250 0.000446 0
1.020826 0.031143 0
1.032245 0.055073 0
1.039072 0.071396 0
1.041219 0.080128 0
1.038976 0.081920 0
1.033104 0.077775 0
1.024935 0.067015 0
1.017184 0.060184 0
1.000000 0.000007 0
0.997114 -0.018795 0
0.988050 -0.040180 0
0.971442 -0.067491 0
0.944610 -0.106156 0
0.902736 -0.166935 0
0.836985 -0.273426 0
0.731812 -0.542051 0
0.546141 -0.523819 0
0.000131 -0.163355 0
0.393073 -0.033490 0
0.319691 -0.040387 0
0.300013 -0.026365 0
0.296057 -0.016081 0
0.289674 -0.025698 0
0.292175 -0.056717 0
0.318823 -0.087643 0
0.377219 -0.084293 0
0.461183 -0.030923 0
0.542055 0.041444 0
0.600427 0.103071 0
0.638069 0.154577 0
0.654661 0.196613 0
0.649493 0.227747 0
0.622240 0.247649 0
0.573769 0.257247 0
0.508357 0.257068 0
0.436463 0.244843 0
0.374260 0.215493 0
0.337191 0.164442 0
0.332122 0.091635 0
0.355021 0.004229 0
0.391766 -0.084376 0
0.429000 -0.162820 0
0.464122 -0.223943 0
0.500397 -0.260792 0
0.542722 -0.267587 0
0.594847 -0.241746 0
0.657555 -0.186009 0
0.728138 -0.108901 0
0.799463 -0.024747 0
0.858885 0.049497 0
0.902076 0.107081 0
0.930305 0.150703 0
0.944532 0.182403 0
0.945536 0.203838 0
0.933733 0.216876 0
0.909166 0.223859 0
0.872241 0.227014 0
0.825507 0.226647 0
0.775369 0.219306 0
0.731287 0.198639 0
0.701707 0.159672 0
0.689830 0.103008 0
0.693007 0.035042 0
0.705349 -0.034899 0
0.720646 -0.099014 0
0.735307 -0.153316 0
0.748174 -0.195894 0
0.759919 -0.225105 0
0.772454 -0.238920 0
0.788090 -0.235218 0
0.808501 -0.212907 0
0.833956 -0.173148 0
0.863275 -0.119784 0
0.894379 -0.058715 0
0.924437 0.002520 0
0.949573 0.056900 0
0.968047 0.100864 0
0.979027 0.133682 0
0.982106 0.155985 0
0.977117 0.169353 0
0.964221 0.175790 0
0.944281 0.176926 0
0.919312 0.173110 0
0.892588 0.163004 0
0.867982 0.144325 0
0.848750 0.115515 0
0.836511 0.077184 0
0.831139 0.032277 0
0.831409 -0.014876 0
0.835609 -0.059925 0
0.842127 -0.099599 0
0.849860 -0.131855 0
0.858279 -0.155422 0
0.867383 -0.169418 0
0.877538 -0.173182 0
0.889210 -0.166378 0
0.902680 -0.149295 0
0.917850 -0.123143 0
0.934225 -0.090132 0
0.951002 -0.053284 0
0.967162 -0.016101 0
0.981288 0.017793 0
0.992208 0.045717 0
0.999272 0.066419 0
1.002208 0.079532 0
1.001167 0.085247 0
0.996823 0.084005 0
0.990450 0.074211 0
0.984301 0.067590 0
1.000000 0.000006 0
0.996200 -0.011501 0
0.984168 -0.024308 0
0.961706 -0.039935 0
0.924200 -0.060467 0
0.862422 -0.088902 0
0.756757 -0.128430 0
0.564056 -0.198394 0
0.074217 0.000370 0
-0.528093 0.123136 0
0.000000 -0.000022 0
-0.033697 -0.024951 0
-0.052133 -0.053690 0
-0.057779 -0.049908 0
-0.070459 -0.051657 0
-0.075378 -0.086790 0
-0.056760 -0.136451 0
-0.011588 -0.160085 0
0.063973 -0.127910 0
0.165636 -0.048841 0
0.252809 0.039211 0
0.309311 0.116277 0
0.341759 0.183911 0
0.349971 0.240872 0
0.335614 0.284715 0
0.304696 0.311534 0
0.268745 0.315404 0
0.242650 0.290394 0
0.238690 0.234814 0
0.260857 0.153809 0
0.303608 0.058060 0
0.352163 -0.037705 0
0.393765 -0.123055 0
0.425016 -0.195409 0
0.446656 -0.252694 0
0.463050 -0.290982 0
0.481118 -0.305099 0
0.508111 -0.290446 0
0.548621 -0.246025 0
0.602484 -0.176643 0
0.665039 -0.092341 0
0.727196 -0.007394 0
0.777515 0.065780 0
0.813277 0.124350 0
0.834429 0.170592 0
0.841042 0.206381 0
0.833323 0.233670 0
0.812239 0.254064 0
0.780752 0.267466 0
0.744938 0.270626 0
0.713344 0.257616 0
0.693789 0.223352 0
0.689704 0.167816 0
0.699218 0.097041 0
0.717345 0.020510 0
0.737873 -0.052068 0
0.756233 -0.114675 0
0.770133 -0.165676 0
0.778802 -0.204964 0
0.782926 -0.232430 0
0.784667 -0.247101 0
0.787273 -0.246992 0
0.794040 -0.230023 0
0.806978 -0.195682 0
0.826052 -0.146285 0