# vtk DataFile Version 2.0
generated by CFD-lab course output (written by Tobias Neckel) 
ASCII

DATASET STRUCTURED_GRID
DIMENSIONS  101 21 1 
POINTS 2121 float

0.000000 0.000000 0
0.100000 0.000000 0
0.200000 0.000000 0
0.300000 0.000000 0
0.400000 0.000000 0
0.500000 0.000000 0
0.600000 0.000000 0
0.700000 0.000000 0
0.800000 0.000000 0
0.900000 0.000000 0
1.000000 0.000000 0
1.100000 0.000000 0
1.200000 0.000000 0
1.300000 0.000000 0
1.400000 0.000000 0
1.500000 0.000000 0
1.600000 0.000000 0
1.700000 0.000000 0
1.800000 0.000000 0
1.900000 0.000000 0
2.000000 0.000000 0
2.100000 0.000000 0
2.200000 0.000000 0
2.300000 0.000000 0
2.400000 0.000000 0
2.500000 0.000000 0
2.600000 0.000000 0
2.700000 0.000000 0
2.800000 0.000000 0
2.900000 0.000000 0
3.000000 0.000000 0
3.100000 0.000000 0
3.200000 0.000000 0
3.300000 0.000000 0
3.400000 0.000000 0
3.500000 0.000000 0
3.600000 0.000000 0
3.700000 0.000000 0
3.800000 0.000000 0
3.900000 0.000000 0
4.000000 0.000000 0
4.100000 0.000000 0
4.200000 0.000000 0
4.300000 0.000000 0
4.400000 0.000000 0
4.500000 0.000000 0
4.600000 0.000000 0
4.700000 0.000000 0
4.800000 0.000000 0
4.900000 0.000000 0
5.000000 0.000000 0
5.100000 0.000000 0
5.200000 0.000000 0
5.300000 0.000000 0
5.400000 0.000000 0
5.500000 0.000000 0
5.600000 0.000000 0
5.700000 0.000000 0
5.800000 0.000000 0
5.900000 0.000000 0
6.000000 0.000000 0
6.100000 0.000000 0
6.200000 0.000000 0
6.300000 0.000000 0
6.400000 0.000000 0
6.500000 0.000000 0
6.600000 0.000000 0
6.700000 0.000000 0
6.800000 0.000000 0
6.900000 0.000000 0
7.000000 0.000000 0
7.100000 0.000000 0
7.200000 0.000000 0
7.300000 0.000000 0
7.400000 0.000000 0
7.500000 0.000000 0
7.600000 0.000000 0
7.700000 0.000000 0
7.800000 0.000000 0
7.900000 0.000000 0
8.000000 0.000000 0
8.100000 0.000000 0
8.200000 0.000000 0
8.300000 0.000000 0
8.400000 0.000000 0
8.500000 0.000000 0
8.600000 0.000000 0
8.700000 0.000000 0
8.800000 0.000000 0
8.900000 0.000000 0
9.000000 0.000000 0
9.100000 0.000000 0
9.200000 0.000000 0
9.300000 0.000000 0
9.400000 0.000000 0
9.500000 0.000000 0
9.600000 0.000000 0
9.700000 0.000000 0
9.800000 0.000000 0
9.900000 0.000000 0
10.000000 0.000000 0
0.000000 0.100000 0
0.100000 0.100000 0
0.200000 0.100000 0
0.300000 0.100000 0
0.400000 0.100000 0
0.500000 0.100000 0
0.600000 0.100000 0
0.700000 0.100000 0
0.800000 0.100000 0
0.900000 0.100000 0
1.000000 0.100000 0
1.100000 0.100000 0
1.200000 0.100000 0
1.300000 0.100000 0
1.400000 0.100000 0
1.500000 0.100000 0
1.600000 0.100000 0
1.700000 0.100000 0
1.800000 0.100000 0
1.900000 0.100000 0
2.000000 0.100000 0
2.100000 0.100000 0
2.200000 0.100000 0
2.300000 0.100000 0
2.400000 0.100000 0
2.500000 0.100000 0
2.600000 0.100000 0
2.700000 0.100000 0
2.800000 0.100000 0
2.900000 0.100000 0
3.000000 0.100000 0
3.100000 0.100000 0
3.200000 0.100000 0
3.300000 0.100000 0
3.400000 0.100000 0
3.500000 0.100000 0
3.600000 0.100000 0
3.700000 0.100000 0
3.800000 0.100000 0
3.900000 0.100000 0
4.000000 0.100000 0
4.100000 0.100000 0
4.200000 0.100000 0
4.300000 0.100000 0
4.400000 0.100000 0
4.500000 0.100000 0
4.600000 0.100000 0
4.700000 0.100000 0
4.800000 0.100000 0
4.900000 0.100000 0
5.000000 0.100000 0
5.100000 0.100000 0
5.200000 0.100000 0
5.300000 0.100000 0
5.400000 0.100000 0
5.500000 0.100000 0
5.600000 0.100000 0
5.700000 0.100000 0
5.800000 0.100000 0
5.900000 0.100000 0
6.000000 0.100000 0
6.100000 0.100000 0
6.200000 0.100000 0
6.300000 0.100000 0
6.400000 0.100000 0
6.500000 0.100000 0
6.600000 0.100000 0
6.700000 0.100000 0
6.800000 0.100000 0
6.900000 0.100000 0
7.000000 0.100000 0
7.100000 0.100000 0
7.200000 0.100000 0
7.300000 0.100000 0
7.400000 0.100000 0
7.500000 0.100000 0
7.600000 0.100000 0
7.700000 0.100000 0
7.800000 0.100000 0
7.900000 0.100000 0
8.000000 0.100000 0
8.100000 0.100000 0
8.200000 0.100000 0
8.300000 0.100000 0
8.400000 0.100000 0
8.500000 0.100000 0
8.600000 0.100000 0
8.700000 0.100000 0
8.800000 0.100000 0
8.900000 0.100000 0
9.000000 0.100000 0
9.100000 0.100000 0
9.200000 0.100000 0
9.300000 0.100000 0
9.400000 0.100000 0
9.500000 0.100000 0
9.600000 0.100000 0
9.700000 0.100000 0
9.800000 0.100000 0
9.900000 0.100000 0
10.000000 0.100000 0
0.000000 0.200000 0
0.100000 0.200000 0
0.200000 0.200000 0
0.300000 0.200000 0
0.400000 0.200000 0
0.500000 0.200000 0
0.600000 0.200000 0
0.700000 0.200000 0
0.800000 0.200000 0
0.900000 0.200000 0
1.000000 0.200000 0
1.100000 0.200000 0
1.200000 0.200000 0
1.300000 0.200000 0
1.400000 0.200000 0
1.500000 0.200000 0
1.600000 0.200000 0
1.700000 0.200000 0
1.800000 0.200000 0
1.900000 0.200000 0
2.000000 0.200000 0
2.100000 0.200000 0
2.200000 0.200000 0
2.300000 0.200000 0
2.400000 0.200000 0
2.500000 0.200000 0
2.600000 0.200000 0
2.700000 0.200000 0
2.800000 0.200000 0
2.900000 0.200000 0
3.000000 0.200000 0
3.100000 0.200000 0
3.200000 0.200000 0
3.300000 0.200000 0
3.400000 0.200000 0
3.500000 0.200000 0
3.600000 0.200000 0
3.700000 0.200000 0
3.800000 0.200000 0
3.900000 0.200000 0
4.000000 0.200000 0
4.100000 0.200000 0
4.200000 0.200000 0
4.300000 0.200000 0
4.400000 0.200000 0
4.500000 0.200000 0
4.600000 0.200000 0
4.700000 0.200000 0
4.800000 0.200000 0
4.900000 0.200000 0
5.000000 0.200000 0
5.100000 0.200000 0
5.200000 0.200000 0
5.300000 0.200000 0
5.400000 0.200000 0
5.500000 0.200000 0
5.600000 0.200000 0
5.700000 0.200000 0
5.800000 0.200000 0
5.900000 0.200000 0
6.000000 0.200000 0
6.100000 0.200000 0
6.200000 0.200000 0
6.300000 0.200000 0
6.400000 0.200000 0
6.500000 0.200000 0
6.600000 0.200000 0
6.700000 0.200000 0
6.800000 0.200000 0
6.900000 0.200000 0
7.000000 0.200000 0
7.100000 0.200000 0
7.200000 0.200000 0
7.300000 0.200000 0
7.400000 0.200000 0
7.500000 0.200000 0
7.600000 0.200000 0
7.700000 0.200000 0
7.800000 0.200000 0
7.900000 0.200000 0
8.000000 0.200000 0
8.100000 0.200000 0
8.200000 0.200000 0
8.300000 0.200000 0
8.400000 0.200000 0
8.500000 0.200000 0
8.600000 0.200000 0
8.700000 0.200000 0
8.800000 0.200000 0
8.900000 0.200000 0
9.000000 0.200000 0
9.100000 0.200000 0
9.200000 0.200000 0
9.300000 0.200000 0
9.400000 0.200000 0
9.500000 0.200000 0
9.600000 0.200000 0
9.700000 0.200000 0
9.800000 0.200000 0
9.900000 0.200000 0
10.000000 0.200000 0
0.000000 0.300000 0
0.100000 0.300000 0
0.200000 0.300000 0
0.300000 0.300000 0
0.400000 0.300000 0
0.500000 0.300000 0
0.600000 0.300000 0
0.700000 0.300000 0
0.800000 0.300000 0
0.900000 0.300000 0
1.000000 0.300000 0
1.100000 0.300000 0
1.200000 0.300000 0
1.300000 0.300000 0
1.400000 0.300000 0
1.500000 0.300000 0
1.600000 0.300000 0
1.700000 0.300000 0
1.800000 0.300000 0
1.900000 0.300000 0
2.000000 0.300000 0
2.100000 0.300000 0
2.200000 0.300000 0
2.300000 0.300000 0
2.400000 0.300000 0
2.500000 0.300000 0
2.600000 0.300000 0
2.700000 0.300000 0
2.800000 0.300000 0
2.900000 0.300000 0
3.000000 0.300000 0
3.100000 0.300000 0
3.200000 0.300000 0
3.300000 0.300000 0
3.400000 0.300000 0
3.500000 0.300000 0
3.600000 0.300000 0
3.700000 0.300000 0
3.800000 0.300000 0
3.900000 0.300000 0
4.000000 0.300000 0
4.100000 0.300000 0
4.200000 0.300000 0
4.300000 0.300000 0
4.400000 0.300000 0
4.500000 0.300000 0
4.600000 0.300000 0
4.700000 0.300000 0
4.800000 0.300000 0
4.900000 0.300000 0
5.000000 0.300000 0
5.100000 0.300000 0
5.200000 0.300000 0
5.300000 0.300000 0
5.400000 0.300000 0
5.500000 0.300000 0
5.600000 0.300000 0
5.700000 0.300000 0
5.800000 0.300000 0
5.900000 0.300000 0
6.000000 0.300000 0
6.100000 0.300000 0
6.200000 0.300000 0
6.300000 0.300000 0
6.400000 0.300000 0
6.500000 0.300000 0
6.600000 0.300000 0
6.700000 0.300000 0
6.800000 0.300000 0
6.900000 0.300000 0
7.000000 0.300000 0
7.100000 0.300000 0
7.200000 0.300000 0
7.300000 0.300000 0
7.400000 0.300000 0
7.500000 0.300000 0
7.600000 0.300000 0
7.700000 0.300000 0
7.800000 0.300000 0
7.900000 0.300000 0
8.000000 0.300000 0
8.100000 0.300000 0
8.200000 0.300000 0
8.300000 0.300000 0
8.400000 0.300000 0
8.500000 0.300000 0
8.600000 0.300000 0
8.700000 0.300000 0
8.800000 0.300000 0
8.900000 0.300000 0
9.000000 0.300000 0
9.100000 0.300000 0
9.200000 0.300000 0
9.300000 0.300000 0
9.400000 0.300000 0
9.500000 0.300000 0
9.600000 0.300000 0
9.700000 0.300000 0
9.800000 0.300000 0
9.900000 0.300000 0
10.000000 0.300000 0
0.000000 0.400000 0
0.100000 0.400000 0
0.200000 0.400000 0
0.300000 0.400000 0
0.400000 0.400000 0
0.500000 0.400000 0
0.600000 0.400000 0
0.700000 0.400000 0
0.800000 0.400000 0
0.900000 0.400000 0
1.000000 0.400000 0
1.100000 0.400000 0
1.200000 0.400000 0
1.300000 0.400000 0
1.400000 0.400000 0
1.500000 0.400000 0
1.600000 0.400000 0
1.700000 0.400000 0
1.800000 0.400000 0
1.900000 0.400000 0
2.000000 0.400000 0
2.100000 0.400000 0
2.200000 0.400000 0
2.300000 0.400000 0
2.400000 0.400000 0
2.500000 0.400000 0
2.600000 0.400000 0
2.700000 0.400000 0
2.800000 0.400000 0
2.900000 0.400000 0
3.000000 0.400000 0
3.100000 0.400000 0
3.200000 0.400000 0
3.300000 0.400000 0
3.400000 0.400000 0
3.500000 0.400000 0
3.600000 0.400000 0
3.700000 0.400000 0
3.800000 0.400000 0
3.900000 0.400000 0
4.000000 0.400000 0
4.100000 0.400000 0
4.200000 0.400000 0
4.300000 0.400000 0
4.400000 0.400000 0
4.500000 0.400000 0
4.600000 0.400000 0
4.700000 0.400000 0
4.800000 0.400000 0
4.900000 0.400000 0
5.000000 0.400000 0
5.100000 0.400000 0
5.200000 0.400000 0
5.300000 0.400000 0
5.400000 0.400000 0
5.500000 0.400000 0
5.600000 0.400000 0
5.700000 0.400000 0
5.800000 0.400000 0
5.900000 0.400000 0
6.000000 0.400000 0
6.100000 0.400000 0
6.200000 0.400000 0
6.300000 0.400000 0
6.400000 0.400000 0
6.500000 0.400000 0
6.600000 0.400000 0
6.700000 0.400000 0
6.800000 0.400000 0
6.900000 0.400000 0
7.000000 0.400000 0
7.100000 0.400000 0
7.200000 0.400000 0
7.300000 0.400000 0
7.400000 0.400000 0
7.500000 0.400000 0
7.600000 0.400000 0
7.700000 0.400000 0
7.800000 0.400000 0
7.900000 0.400000 0
8.000000 0.400000 0
8.100000 0.400000 0
8.200000 0.400000 0
8.300000 0.400000 0
8.400000 0.400000 0
8.500000 0.400000 0
8.600000 0.400000 0
[...]
POINT_DATA 2121 

VECTORS velocity float
0.500000 0.000000 0
0.000001 0.000000 0
0.000003 0.000000 0
0.000007 0.000000 0
0.000017 0.000000 0
0.000033 0.000000 0
0.000064 0.000000 0
0.000096 0.000000 0
0.000144 0.000000 0
0.000196 0.000000 0
0.000254 0.000000 0
0.000307 0.000000 0
0.000345 0.000000 0
0.000352 0.000000 0
0.000313 0.000000 0
0.000213 0.000000 0
0.000041 0.000000 0
-0.000207 0.000000 0
-0.000525 0.000000 0
-0.000900 0.000000 0
-0.001300 0.000000 0
-0.001678 0.000000 0
-0.001967 0.000000 0
-0.002078 0.000000 0
-0.001945 0.000000 0
-0.001555 0.000000 0
-0.000946 0.000000 0
-0.000195 0.000000 0
0.000607 0.000000 0
0.001372 0.000000 0
0.002044 0.000000 0
0.002582 0.000000 0
0.002964 0.000000 0
0.003177 0.000000 0
0.003214 0.000000 0
0.003070 0.000000 0
0.002743 0.000000 0
0.002232 0.000000 0
0.001533 0.000000 0
0.000636 0.000000 0
-0.000468 0.000000 0
-0.001727 0.000000 0
-0.003016 0.000000 0
-0.004221 0.000000 0
-0.005194 0.000000 0
-0.005772 0.000000 0
-0.005809 0.000000 0
-0.005221 0.000000 0
-0.004042 0.000000 0
-0.002452 0.000000 0
-0.000741 0.000000 0
0.000887 0.000000 0
0.002345 0.000000 0
0.003554 0.000000 0
0.004467 0.000000 0
0.005064 0.000000 0
0.005349 0.000000 0
0.005342 0.000000 0
0.005064 0.000000 0
0.004537 0.000000 0
0.003773 0.000000 0
0.002785 0.000000 0
0.001599 0.000000 0
0.000279 0.000000 0
-0.001010 0.000000 0
-0.002145 0.000000 0
-0.003126 0.000000 0
-0.003969 0.000000 0
-0.004680 0.000000 0
-0.005246 0.000000 0
-0.005624 0.000000 0
-0.005731 0.000000 0
-0.005462 0.000000 0
-0.004726 0.000000 0
-0.003508 0.000000 0
-0.001930 0.000000 0
-0.000226 0.000000 0
0.001465 0.000000 0
0.003055 0.000000 0
0.004433 0.000000 0
0.005494 0.000000 0
0.006141 0.000000 0
0.006297 0.000000 0
0.005921 0.000000 0
0.005028 0.000000 0
0.003713 0.000000 0
0.002144 0.000000 0
0.000540 0.000000 0
-0.000857 0.000000 0
-0.001875 0.000000 0
-0.002595 0.000000 0
-0.003119 0.000000 0
-0.003532 0.000000 0
-0.003893 0.000000 0
-0.004236 0.000000 0
-0.004567 0.000000 0
-0.004867 0.000000 0
-0.005097 0.000000 0
-0.005219 0.000000 0
-0.005216 0.000000 0
-0.005291 0.000000 0
1.000000 0.000001 0
1.002695 -0.004886 0
1.011043 -0.010553 0
1.025417 -0.016678 0
1.046209 -0.023042 0
1.073636 -0.029233 0
1.107412 -0.034555 0
1.146333 -0.038064 0
1.187986 -0.038795 0
1.228632 -0.036381 0
1.264835 -0.031374 0
1.294431 -0.024791 0
1.316510 -0.017622 0
1.331065 -0.010641 0
1.338712 -0.004414 0
1.340508 0.000656 0
1.337814 0.004320 0
1.332178 0.006457 0
1.325222 0.007062 0
1.318522 0.006268 0
1.313451 0.004357 0
1.311027 0.001770 0
1.311726 -0.000853 0
1.315238 -0.002729 0
1.320342 -0.003158 0
1.325105 -0.001793 0
1.327406 0.001279 0
1.325546 0.005632 0
1.318537 0.010646 0
1.306104 0.015705 0
1.288558 0.020321 0
1.266616 0.024152 0
1.241246 0.026985 0
1.213560 0.028695 0
1.184747 0.029210 0
1.156039 0.028493 0
1.128687 0.026522 0
1.103951 0.023283 0
1.083080 0.018743 0
1.067293 0.012828 0
1.057746 0.005496 0
1.055462 -0.002930 0
1.061248 -0.011736 0
1.075467 -0.020094 0
1.097718 -0.027078 0
1.126585 -0.031682 0
1.159604 -0.033006 0
1.193422 -0.030523 0
1.224161 -0.024352 0
1.248051 -0.015435 0
1.262276 -0.005319 0
1.265673 0.004675 0
1.258717 0.013823 0
1.242666 0.021642 0
1.219201 0.027789 0
1.190232 0.032093 0
1.157731 0.034518 0
1.123620 0.035117 0
1.089716 0.033978 0
1.057707 0.031180 0
1.029132 0.026778 0
1.005340 0.020839 0
0.987385 0.013524 0
0.975912 0.005280 0
0.971113 -0.002962 0
0.972830 -0.010350 0
0.980598 -0.016646 0
0.993845 -0.021895 0
1.011959 -0.026154 0
1.034319 -0.029391 0
1.060237 -0.031416 0
1.088805 -0.031849 0
1.118676 -0.030167 0
1.147914 -0.025904 0
1.174010 -0.018971 0
1.194143 -0.009968 0
1.205700 -0.000013 0
1.207076 0.009963 0
1.198293 0.019380 0
1.180239 0.027671 0
1.154404 0.034236 0
1.122805 0.038511 0
1.087885 0.040017 0
1.052358 0.038446 0
1.018949 0.033808 0
0.990043 0.026557 0
0.967302 0.017619 0
0.951426 0.008279 0
0.942191 0.000008 0
0.938799 -0.006195 0
0.940122 -0.010362 0
0.944943 -0.013048 0
0.952304 -0.014757 0
0.961562 -0.015853 0
0.972341 -0.016540 0
0.984414 -0.016852 0
0.997547 -0.016670 0
1.011338 -0.015771 0
1.025114 -0.013896 0
1.037947 -0.011545 0
1.048475 -0.010485 0
1.000000 0.000000 0
1.003023 -0.011047 0
1.011844 -0.022718 0
1.026801 -0.035166 0
1.048516 -0.048222 0
1.077641 -0.061202 0
1.114446 -0.072700 0
1.158134 -0.080583 0
1.206221 -0.082312 0
1.252762 -0.076866 0
1.292980 -0.065819 0
1.324738 -0.051698 0
1.347636 -0.036659 0
1.362107 -0.022228 0
1.369055 -0.009471 0
1.369762 0.000867 0
1.365743 0.008302 0
1.358697 0.012568 0
1.350430 0.013637 0
1.342716 0.011762 0
1.337139 0.007494 0
1.334981 0.001729 0
1.337027 -0.004203 0
1.343128 -0.008609 0
1.351844 -0.009865 0
1.360563 -0.007069 0
1.366357 -0.000449 0
1.367107 0.008865 0
1.361828 0.019438 0
1.350435 0.029973 0
1.333461 0.039480 0
1.311822 0.047303 0
1.286612 0.053045 0
1.259007 0.056486 0
1.230207 0.057506 0
1.201422 0.056043 0
1.173862 0.052069 0
1.148715 0.045588 0
1.127124 0.036638 0
1.110135 0.025313 0
1.098650 0.011811 0
1.093475 -0.003523 0
1.095535 -0.020024 0
1.105560 -0.036485 0
1.123655 -0.051128 0
1.149086 -0.061893 0
1.180320 -0.066842 0
1.215001 -0.064559 0
1.249828 -0.054629 0
1.280660 -0.038115 0
1.303180 -0.017624 0
1.314238 0.003554 0
1.313475 0.023000 0
1.302431 0.039506 0
1.283067 0.052423 0
1.257520 0.061459 0
1.227906 0.066600 0
1.196210 0.068002 0
1.164226 0.065900 0
1.133518 0.060570 0
1.105371 0.052353 0
1.080735 0.041733 0
1.060166 0.029414 0
1.043847 0.016258 0
1.031775 0.003068 0
1.024153 -0.009501 0
1.021116 -0.021030 0
1.022638 -0.031375 0
1.028680 -0.040487 0
1.039309 -0.048289 0
1.054691 -0.054495 0
1.074875 -0.058446 0
1.099447 -0.059115 0
1.127273 -0.055338 0
1.156403 -0.046233 0
1.184089 -0.031694 0
1.206954 -0.012937 0
1.221698 0.007403 0
1.226548 0.026831 0
1.221949 0.043883 0
1.209124 0.057430 0
1.189774 0.066516 0
1.165893 0.070446 0
1.139543 0.068938 0
1.112625 0.062321 0
1.086676 0.051655 0
1.062760 0.038626 0
1.041504 0.025123 0
1.023267 0.012642 0
1.008420 0.002086 0
0.997128 -0.006126 0
0.989131 -0.012162 0
0.984001 -0.016597 0
0.981451 -0.020013 0
0.981446 -0.022826 0
0.984100 -0.025179 0
0.989507 -0.026896 0
0.997529 -0.027540 0
1.007635 -0.026581 0
1.018927 -0.023332 0
1.028908 -0.021385 0
1.000000 0.000000 0
1.002628 -0.016728 0
1.010641 -0.034332 0
1.024668 -0.053355 0
1.045842 -0.073882 0
1.075680 -0.095167 0
1.115697 -0.115058 0
1.166251 -0.129848 0
1.225902 -0.133433 0
1.281775 -0.123150 0
1.326608 -0.103361 0
1.359425 -0.079457 0
1.381362 -0.055001 0
1.393685 -0.032072 0
1.397647 -0.012082 0
1.394800 0.003959 0
1.386791 0.015378 0
1.375548 0.021768 0
1.363189 0.023050 0
1.351832 0.019568 0
1.343403 0.012100 0
1.339536 0.001891 0
1.341608 -0.008999 0
1.350049 -0.017550 0
1.363253 -0.020602 0
1.377499 -0.016318 0
1.388189 -0.005268 0
1.392014 0.010159 0
1.388046 0.027314 0
1.376642 0.044068 0
1.358838 0.058928 0
1.335938 0.070995 0
1.309266 0.079793 0
1.280086 0.085093 0
1.249601 0.086787 0
1.218970 0.084829 0
1.189329 0.079220 0
1.161783 0.070012 0
1.137383 0.057315 0
1.117082 0.041295 0
1.101681 0.022149 0
1.091808 0.000179 0
1.087991 -0.023824 0
1.090771 -0.048214 0
1.100446 -0.070603 0
1.117096 -0.088345 0
1.140770 -0.098919 0
1.171080 -0.100029 0
1.206376 -0.090012 0
1.243172 -0.068789 0
1.276296 -0.038903 0
1.300032 -0.005627 0
1.310536 0.025623 0
1.308578 0.052042 0
1.296441 0.072694 0
1.276562 0.087249 0
1.251283 0.095823 0
1.222722 0.098791 0
1.192702 0.096664 0
1.162715 0.090029 0
1.133912 0.079556 0
1.107121 0.066038 0
1.082898 0.050407 0
1.061588 0.033665 0
1.043310 0.016725 0
1.027915 0.000303 0
1.015200 -0.015136 0
1.005205 -0.029463 0
0.998585 -0.042828 0
0.996505 -0.055405 0
1.000350 -0.066985 0
1.011140 -0.076605 0
1.028995 -0.082565 0
1.053020 -0.082861 0
1.081493 -0.075789 0
1.112099 -0.060521 0
1.142068 -0.037626 0
1.168141 -0.009636 0
1.186820 0.019125 0
1.196537 0.045091 0
1.197761 0.066409 0
1.191526 0.081742 0
1.179165 0.090249 0
1.162084 0.091715 0
1.141608 0.086678 0
1.118926 0.076425 0
1.095139 0.062794 0
1.071304 0.047775 0
1.048355 0.033096 0
1.026900 0.019949 0
1.007261 0.008932 0
0.989665 0.000085 0
0.974316 -0.007071 0
0.961628 -0.013291 0
0.952260 -0.019181 0
0.946900 -0.024905 0
0.945896 -0.030091 0
0.949059 -0.033891 0
0.955611 -0.035287 0
0.964287 -0.032812 0
0.973021 -0.031096 0
1.000000 0.000000 0
1.002098 -0.021689 0
1.008650 -0.044761 0
1.020579 -0.070369 0
1.039645 -0.099235 0
1.068630 -0.131064 0
1.111320 -0.163280 0
1.171028 -0.190796 0
1.252077 -0.197846 0
1.320093 -0.177581 0
1.366581 -0.143477 0
1.396392 -0.106462 0
1.414262 -0.070930 0
1.422360 -0.038524 0
1.421791 -0.010595 0
1.413786 0.011717 0
1.399896 0.027551 0
1.382305 0.036174 0
1.363586 0.037361 0
1.346367 0.031554 0
1.332970 0.019796 0
1.325220 0.003527 0
1.324896 -0.014719 0
1.333869 -0.030264 0
1.351303 -0.037326 0
1.372894 -0.032007 0
1.391785 -0.014964 0
1.401521 0.009003 0
1.400314 0.034806 0
1.389522 0.059175 0
1.371112 0.080177 0
1.346999 0.096868 0
1.318805 0.108889 0
1.287882 0.116144 0
1.255416 0.118615 0
1.222518 0.116307 0
1.190277 0.109248 0
1.159773 0.097526 0
1.132043 0.081331 0
1.107966 0.061007 0
1.087971 0.037078 0
1.071662 0.010164 0
1.057970 -0.018989 0
1.046623 -0.048940 0
1.039163 -0.077451 0
1.038032 -0.102215 0
1.046253 -0.120825 0
1.065899 -0.130165 0
1.096797 -0.126723 0
1.136270 -0.108040 0
1.179391 -0.074491 0
1.219427 -0.030693 0
1.248948 0.014448 0
1.263778 0.053596 0
1.265708 0.084433 0
1.257250 0.106611 0
1.240907 0.120435 0
1.218985 0.126577 0
1.193492 0.125900 0
1.166094 0.119354 0
1.138114 0.107942 0
1.110550 0.092742 0
1.084074 0.074940 0
1.058971 0.055839 0
1.035055 0.036734 0
1.011772 0.018604 0
0.988753 0.001677 0
0.966563 -0.014764 0
0.947190 -0.031790 0
0.933772 -0.050056 0
0.928977 -0.069131 0
0.933864 -0.087092 0
0.947880 -0.100996 0
0.969499 -0.107837 0
0.996790 -0.105314 0
1.027702 -0.092272 0
1.060120 -0.068982 0
1.091743 -0.037354 0
1.119676 -0.001570 0
1.140558 0.032939 0
1.153373 0.062440 0
1.158383 0.085112 0
1.156269 0.099888 0
1.147906 0.106495 0
1.134247 0.105480 0
1.116292 0.098125 0
1.095082 0.086251 0
1.071652 0.071908 0
1.046918 0.057048 0
1.021586 0.043184 0
0.996257 0.031113 0
0.971697 0.020788 0
0.949047 0.011446 0
0.929689 0.002048 0
0.914910 -0.008093 0
0.905576 -0.018808 0
0.901872 -0.029049 0
0.903186 -0.037249 0
0.908309 -0.041803 0
0.915679 -0.040736 0
0.923300 -0.039603 0
1.000000 0.000001 0
1.001263 -0.025382 0
1.005334 -0.052816 0
1.013247 -0.084351 0
1.027193 -0.121938 0
1.051266 -0.166849 0
1.092554 -0.217463 0
1.160795 -0.270614 0
1.278923 -0.282506 0
1.352687 -0.237662 0
1.386531 -0.179668 0
1.402516 -0.127148 0
1.410663 -0.080980 0
1.412498 -0.039610 0
1.406732 -0.003514 0
1.392707 0.025849 0
1.371595 0.046861 0
1.345801 0.058085 0
1.318433 0.058994 0
1.292744 0.050190 0
1.271476 0.033249 0
1.256326 0.009962 0
1.248185 -0.017655 0
1.250521 -0.043968 0
1.265644 -0.059632 0
1.291804 -0.056799 0
1.322388 -0.033898 0
1.346540 0.001625 0
1.355598 0.039307 0
1.351618 0.073264 0
1.338154 0.101445 0
1.317938 0.123294 0
1.292807 0.138902 0
1.264064 0.148475 0
1.232790 0.152143 0
1.200013 0.149960 0
1.166774 0.141958 0
1.134121 0.128238 0
1.103034 0.109113 0
1.074192 0.085360 0
1.047363 0.058449 0
1.020717 0.030178 0
0.991465 0.001214 0
0.958769 -0.029406 0
0.927275 -0.062010 0
0.906040 -0.095433 0
0.901097 -0.126786 0
0.913552 -0.150575 0
0.941489 -0.160386 0
0.981630 -0.151390 0
1.029866 -0.122068 0
1.081093 -0.075190 0
1.128736 -0.018733 0
1.164738 0.035277 0
1.186104 0.079216 0
1.194693 0.112044 0
1.192701 0.134082 0
1.182318 0.146201 0
1.165585 0.149549 0
1.144303 0.145401 0
1.119966 0.135094 0
1.093675 0.120072 0
1.065983 0.101979 0
1.036764 0.082677 0
1.005439 0.063918 0
0.971843 0.046601 0
0.937365 0.030069 0
0.905269 0.012096 0
0.879611 -0.010039 0
0.863694 -0.037194 0
0.858938 -0.067078 0
0.864537 -0.095509 0
0.878641 -0.118202 0
0.899340 -0.131774 0
0.924983 -0.133995 0
0.954118 -0.123855 0
0.985342 -0.101672 0
1.017171 -0.069197 0
1.047882 -0.029694 0
1.074758 0.011392 0
1.095058 0.048582 0
1.108132 0.078845 0
1.113971 0.100726 0
1.112923 0.113737 0
1.105548 0.118291 0
1.092530 0.115590 0
1.074617 0.107433 0
1.052554 0.095939 0
1.027089 0.083164 0
0.999109 0.070613 0
0.969892 0.058824 0
0.941265 0.047297 0
0.915421 0.034940 0
0.894380 0.020849 0
0.879405 0.004936 0
0.870735 -0.011862 0
0.867794 -0.027697 0
0.869467 -0.040325 0
0.874365 -0.047777 0
0.881003 -0.047799 0
0.887577 -0.047044 0
1.000000 0.000001 0
1.000068 -0.027028 0
1.000447 -0.056747 0
1.001872 -0.092231 0
1.006205 -0.137259 0
1.017770 -0.196432 0
1.046352 -0.272815 0
1.111877 -0.377172 0
1.279672 -0.389746 0
1.328553 -0.285197 0
1.317040 -0.193315 0
1.302153 -0.130604 0
1.294411 -0.080921 0
1.291091 -0.034601 0
1.282426 0.009190 0
1.264162 0.046855 0
1.236717 0.074462 0
1.202430 0.089341 0
1.164761 0.090423 0
1.127545 0.078515 0
1.093747 0.056212 0
1.064641 0.026811 0
1.040722 -0.008924 0
1.024053 -0.047730 0
1.024893 -0.078610 0
1.048835 -0.088754 0
1.091959 -0.069705 0
1.142530 -0.024212 0
1.183720 0.029722 0
1.205391 0.076613 0
1.212872 0.113850 0
1.210323 0.142207 0
1.199882 0.162757 0
1.182849 0.176154 0
1.160315 0.182658 0
1.133369 0.182314 0
1.103075 0.175133 0
1.070183 0.161259 0
1.034504 0.141253 0
0.994367 0.116674 0
0.947502 0.090550 0
0.894125 0.066060 0
0.839518 0.042959 0
0.792162 0.015252 0
0.759429 -0.024721 0
0.745209 -0.076036 0
0.748559 -0.128338 0
0.766393 -0.170560 0
0.796008 -0.194807 0
0.835447 -0.196426 0
0.882777 -0.173960 0
0.935411 -0.129568 0
0.989657 -0.069203 0
1.039715 -0.003777 0
1.077949 0.054472 0
1.102975 0.100008 0
1.116057 0.132805 0
1.118767 0.153687 0
1.112762 0.163909 0
1.099600 0.164968 0
1.080553 0.158564 0
1.056377 0.146718 0
1.027165 0.131845 0
0.992627 0.116377 0
0.953112 0.101650 0
0.910935 0.086674 0
0.870779 0.068247 0
0.838268 0.042988 0
0.817388 0.009782 0
0.808716 -0.029383 0
0.810255 -0.069975 0
0.819311 -0.106797 0
0.833798 -0.135801 0
0.852473 -0.154182 0
0.874640 -0.160097 0
0.899758 -0.152637 0
0.927150 -0.132041 0
0.955892 -0.099899 0
0.984803 -0.059160 0
1.012361 -0.014240 0
1.035816 0.029064 0
1.053362 0.066198 0
1.064346 0.095094 0
1.068579 0.114916 0
1.066161 0.125870 0
1.057362 0.129054 0
1.042557 0.126225 0
1.022259 0.119435 0
0.997278 0.110494 0
0.968987 0.100381 0
0.939472 0.088958 0
0.911337 0.075261 0
0.887124 0.058333 0
0.868627 0.038066 0
0.856514 0.015555 0
0.850354 -0.007195 0
0.849015 -0.027779 0
0.851204 -0.043817 0
0.855698 -0.053336 0
0.861358 -0.053946 0
0.866786 -0.053339 0
1.000000 0.000002 0
0.998611 -0.025835 0
0.994373 -0.054623 0
0.987149 -0.090112 0
0.977106 -0.137841 0
0.965807 -0.207003 0
0.959730 -0.311577 0
0.981282 -0.503941 0
1.143680 -0.499189 0
1.129828 -0.275038 0
1.025748 -0.153277 0
0.969344 -0.104528 0
0.944761 -0.069925 0
0.945797 -0.027630 0
0.945490 0.023413 0
0.931511 0.071562 0
0.903267 0.108598 0
0.860897 0.130045 0
0.805558 0.133883 0
0.740770 0.121204 0
0.674642 0.096149 0
0.619905 0.062979 0
0.588888 0.022925 0
0.585666 -0.028142 0
0.608198 -0.084416 0
0.653443 -0.123869 0
0.717964 -0.127597 0
0.796648 -0.090141 0
0.879246 -0.023560 0
0.947952 0.044105 0
0.993840 0.096506 0
1.022547 0.136276 0
1.037770 0.166369 0
1.041183 0.188035 0
1.034040 0.201617 0
1.017350 0.207192 0
0.991604 0.205136 0
0.956305 0.196803 0
0.909929 0.184925 0
0.851435 0.172359 0
0.783584 0.158689 0
0.715576 0.138162 0
0.660852 0.103178 0
0.629943 0.050684 0
0.623933 -0.015056 0
0.634161 -0.084563 0
0.652320 -0.147972 0
0.674894 -0.198030 0
0.701872 -0.229448 0
0.734626 -0.238166 0
0.774180 -0.222036 0
0.820147 -0.182075 0
0.870544 -0.123044 0
0.922084 -0.053021 0
0.968682 0.015951 0
1.004403 0.073930 0
1.028708 0.118284 0
1.042126 0.149490 0
1.045525 0.168711 0
1.039806 0.177603 0
1.025618 0.178311 0
1.003216 0.173454 0
0.972724 0.165723 0
0.935076 0.156725 0
0.893231 0.145605 0
0.852440 0.128929 0
0.818694 0.102733 0
0.796176 0.065485 0
0.785774 0.019511 0
0.785523 -0.030061 0
0.791909 -0.077673 0
0.802146 -0.119055 0
0.814754 -0.151368 0
0.829296 -0.172620 0
0.845946 -0.181285 0
0.865018 -0.176371 0
0.886568 -0.157811 0
0.910176 -0.126854 0
0.934978 -0.086167 0
0.959789 -0.039624 0
0.982867 0.007578 0
1.001768 0.050313 0
1.015263 0.085506 0
1.022668 0.111917 0
1.023642 0.129504 0
1.018082 0.139190 0
1.006130 0.142533 0
0.988306 0.141217 0
0.965741 0.136436 0
0.940329 0.128419 0
0.914580 0.116473 0
0.891105 0.099645 0
0.871950 0.077651 0
0.858151 0.051459 0
0.849718 0.023209 0
0.845937 -0.004362 0
0.845712 -0.028545 0
0.847912 -0.047007 0
0.851591 -0.057930 0
0.855989 -0.058887 0
0.860179 -0.058345 0
1.000000 0.000003 0
0.997190 -0.021408 0
0.988368 -0.045287 0
0.972180 -0.074968 0
0.945982 -0.115923 0
0.905028 -0.179064 0
0.840666 -0.288298 0
0.737755 -0.561129 0
0.553727 -0.538300 0
-0.000246 -0.167274 0
0.401896 -0.032839 0
0.331273 -0.049625 0
0.340026 -0.057380 0
0.379691 -0.035332 0
0.421857 0.023478 0
0.431557 0.089082 0
0.416323 0.145080 0
0.378116 0.187054 0
0.320330 0.210553 0
0.252039 0.209428 0
0.190030 0.177071 0
0.154825 0.112556 0
0.160009 0.025309 0
0.199178 -0.067040 0
0.255441 -0.146390 0
0.320003 -0.198525 0
0.392445 -0.212915 0
0.475153 -0.185500 0
0.568463 -0.121588 0
0.664726 -0.037988 0
0.745898 0.039247 0
0.804068 0.098270 0
0.843357 0.144113 0
0.865966 0.179877 0
0.872888 0.206485 0
0.864491 0.224743 0
0.840569 0.236171 0
0.800903 0.242929 0
0.747133 0.246119 0
0.685512 0.243016 0
0.627649 0.226409 0
0.586252 0.188793 0
0.568299 0.128593 0
0.572156 0.052172 0
0.589970 -0.028939 0
0.611703 -0.104426 0
0.631873 -0.169075 0
0.649413 -0.220118 0
0.666133 -0.254546 0
0.685408 -0.268739 0
0.710668 -0.259486 0
0.743765 -0.225938 0
0.784110 -0.171145 0
0.829053 -0.101921 0
0.874684 -0.027852 0
0.914449 0.039977 0
0.944679 0.095075 0
0.964681 0.136863 0
0.974384 0.166223 0
0.973906 0.184868 0
0.963360 0.195147 0
0.943038 0.199606 0
0.914113 0.199979 0
0.879580 0.195865 0
0.844497 0.184281 0
0.814698 0.161207 0
0.794468 0.124510 0
0.784964 0.075906 0
0.784545 0.020433 0
0.790275 -0.035521 0
0.799065 -0.086600 0
0.808782 -0.129644 0
0.818394 -0.162953 0
0.827844 -0.185379 0
0.837824 -0.195825 0
0.849380 -0.193265 0
0.863394 -0.177204 0
0.880141 -0.148313 0
0.899158 -0.108777 0
0.919420 -0.062133 0
0.939553 -0.012918 0
0.957419 0.033798 0
0.971268 0.074189 0
0.980025 0.106531 0
0.983019 0.130450 0
0.979923 0.146562 0
0.970832 0.155999 0
0.956435 0.159822 0
0.938170 0.158469 0
0.918142 0.151540 0
0.898741 0.138180 0
0.882033 0.117889 0
0.869285 0.091285 0
0.860834 0.060297 0
0.856303 0.027768 0
0.854939 -0.003190 0
0.855821 -0.029755 0
0.858054 -0.049696 0
0.860953 -0.061414 0
0.864091 -0.062534 0
0.867031 -0.062004 0
1.000000 0.000004 0
0.996206 -0.014210 0
0.984210 -0.029617 0
0.961813 -0.047732 0
0.924400 -0.070696 0
0.862696 -0.101694 0
0.756886 -0.144311 0
0.563491 -0.217009 0
0.072751 -0.000217 0
-0.533944 0.133712 0
0.000000 0.000065 0
-0.031772 -0.053744 0
-0.056916 -0.118348 0
-0.035493 -0.109461 0
-0.012821 -0.028449 0
0.008646 0.077099 0
0.013254 0.162043 0
-0.000356 0.226041 0
-0.025616 0.259959 0
-0.049413 0.251499 0
-0.053432 0.193355 0
-0.021616 0.092994 0
0.030764 -0.021430 0
0.084569 -0.123577 0
0.134161 -0.205246 0
0.180591 -0.260878 0
0.229108 -0.282752 0
0.286388 -0.266166 0
0.356721 -0.213141 0
0.439488 -0.133337 0
0.526090 -0.042844 0
0.599417 0.038809 0
0.652350 0.104464 0
0.686390 0.158497 0
0.702015 0.203084 0
0.699364 0.239504 0
0.679300 0.268718 0
0.645041 0.290234 0
0.603864 0.300313 0
0.566924 0.291841 0
0.545420 0.257949 0
0.545035 0.197513 0
0.563605 0.117276 0
0.593702 0.029013 0
0.625094 -0.054605 0
0.651128 -0.126469 0
0.669398 -0.185687 0
0.679787 -0.232296 0
0.684308 -0.265449 0
0.687027 -0.282706 0
0.693220 -0.280398 0
0.707517 -0.255524 0
0.731859 -0.208338 0
0.764811 -0.143600 0
0.802614 -0.069451 0
0.840127 0.003928 0
0.871278 0.068046 0
0.893745 0.119779 0
0.906554 0.159478 0
0.909255 0.188621 0
0.901884 0.209173 0
0.885391 0.222695 0
0.862299 0.229175 0
0.836946 0.226337 0