# vtk DataFile Version 2.0
generated by CFD-lab course output (written by Tobias Neckel) 
ASCII

DATASET STRUCTURED_GRID
DIMENSIONS  101 21 1 
POINTS 2121 float

0.000000 0.000000 0
0.100000 0.000000 0
0.200000 0.000000 0
0.300000 0.000000 0
0.400000 0.000000 0
0.500000 0.000000 0
0.600000 0.000000 0
0.700000 0.000000 0
0.800000 0.000000 0
0.900000 0.000000 0
1.000000 0.000000 0
1.100000 0.000000 0
1.200000 0.000000 0
1.300000 0.000000 0
1.400000 0.000000 0
1.500000 0.000000 0
1.600000 0.000000 0
1.700000 0.000000 0
1.800000 0.000000 0
1.900000 0.000000 0
2.000000 0.000000 0
2.100000 0.000000 0
2.200000 0.000000 0
2.300000 0.000000 0
2.400000 0.000000 0
2.500000 0.000000 0
2.600000 0.000000 0
2.700000 0.000000 0
2.800000 0.000000 0
2.900000 0.000000 0
3.000000 0.000000 0
3.100000 0.000000 0
3.200000 0.000000 0
3.300000 0.000000 0
3.400000 0.000000 0
3.500000 0.000000 0
3.600000 0.000000 0
3.700000 0.000000 0
3.800000 0.000000 0
3.900000 0.000000 0
4.000000 0.000000 0
4.100000 0.000000 0
4.200000 0.000000 0
4.300000 0.000000 0
4.400000 0.000000 0
4.500000 0.000000 0
4.600000 0.000000 0
4.700000 0.000000 0
4.800000 0.000000 0
4.900000 0.000000 0
5.000000 0.000000 0
5.100000 0.000000 0
5.200000 0.000000 0
5.300000 0.000000 0
5.400000 0.000000 0
5.500000 0.000000 0
5.600000 0.000000 0
5.700000 0.000000 0
5.800000 0.000000 0
5.900000 0.000000 0
6.000000 0.000000 0
6.100000 0.000000 0
6.200000 0.000000 0
6.300000 0.000000 0
6.400000 0.000000 0
6.500000 0.000000 0
6.600000 0.000000 0
6.700000 0.000000 0
6.800000 0.000000 0
6.900000 0.000000 0
7.000000 0.000000 0
7.100000 0.000000 0
7.200000 0.000000 0
7.300000 0.000000 0
7.400000 0.000000 0
7.500000 0.000000 0
7.600000 0.000000 0
7.700000 0.000000 0
7.800000 0.000000 0
7.900000 0.000000 0
8.000000 0.000000 0
8.100000 0.000000 0
8.200000 0.000000 0
8.300000 0.000000 0
8.400000 0.000000 0
8.500000 0.000000 0
8.600000 0.000000 0
8.700000 0.000000 0
8.800000 0.000000 0
8.900000 0.000000 0
9.000000 0.000000 0
9.100000 0.000000 0
9.200000 0.000000 0
9.300000 0.000000 0
9.400000 0.000000 0
9.500000 0.000000 0
9.600000 0.000000 0
9.700000 0.000000 0
9.800000 0.000000 0
9.900000 0.000000 0
10.000000 0.000000 0
0.000000 0.100000 0
0.100000 0.100000 0
0.200000 0.100000 0
0.300000 0.100000 0
0.400000 0.100000 0
0.500000 0.100000 0
0.600000 0.100000 0
0.700000 0.100000 0
0.800000 0.100000 0
0.900000 0.100000 0
1.000000 0.100000 0
1.100000 0.100000 0
1.200000 0.100000 0
1.300000 0.100000 0
1.400000 0.100000 0
1.500000 0.100000 0
1.600000 0.100000 0
1.700000 0.100000 0
1.800000 0.100000 0
1.900000 0.100000 0
2.000000 0.100000 0
2.100000 0.100000 0
2.200000 0.100000 0
2.300000 0.100000 0
2.400000 0.100000 0
2.500000 0.100000 0
2.600000 0.100000 0
2.700000 0.100000 0
2.800000 0.100000 0
2.900000 0.100000 0
3.000000 0.100000 0
3.100000 0.100000 0
3.200000 0.100000 0
3.300000 0.100000 0
3.400000 0.100000 0
3.500000 0.100000 0
3.600000 0.100000 0
3.700000 0.100000 0
3.800000 0.100000 0
3.900000 0.100000 0
4.000000 0.100000 0
4.100000 0.100000 0
4.200000 0.100000 0
4.300000 0.100000 0
4.400000 0.100000 0
4.500000 0.100000 0
4.600000 0.100000 0
4.700000 0.100000 0
4.800000 0.100000 0
4.900000 0.100000 0
5.000000 0.100000 0
5.100000 0.100000 0
5.200000 0.100000 0
5.300000 0.100000 0
5.400000 0.100000 0
5.500000 0.100000 0
5.600000 0.100000 0
5.700000 0.100000 0
5.800000 0.100000 0
5.900000 0.100000 0
6.000000 0.100000 0
6.100000 0.100000 0
6.200000 0.100000 0
6.300000 0.100000 0
6.400000 0.100000 0
6.500000 0.100000 0
6.600000 0.100000 0
6.700000 0.100000 0
6.800000 0.100000 0
6.900000 0.100000 0
7.000000 0.100000 0
7.100000 0.100000 0
7.200000 0.100000 0
7.300000 0.100000 0
7.400000 0.100000 0
7.500000 0.100000 0
7.600000 0.100000 0
7.700000 0.100000 0
7.800000 0.100000 0
7.900000 0.100000 0
8.000000 0.100000 0
8.100000 0.100000 0
8.200000 0.100000 0
8.300000 0.100000 0
8.400000 0.100000 0
8.500000 0.100000 0
8.600000 0.100000 0
8.700000 0.100000 0
8.800000 0.100000 0
8.900000 0.100000 0
9.000000 0.100000 0
9.100000 0.100000 0
9.200000 0.100000 0
9.300000 0.100000 0
9.400000 0.100000 0
9.500000 0.100000 0
9.600000 0.100000 0
9.700000 0.100000 0
9.800000 0.100000 0
9.900000 0.100000 0
10.000000 0.100000 0
0.000000 0.200000 0
0.100000 0.200000 0
0.200000 0.200000 0
0.300000 0.200000 0
0.400000 0.200000 0
0.500000 0.200000 0
0.600000 0.200000 0
0.700000 0.200000 0
0.800000 0.200000 0
0.900000 0.200000 0
1.000000 0.200000 0
1.100000 0.200000 0
1.200000 0.200000 0
1.300000 0.200000 0
1.400000 0.200000 0
1.500000 0.200000 0
1.600000 0.200000 0
1.700000 0.200000 0
1.800000 0.200000 0
1.900000 0.200000 0
2.000000 0.200000 0
2.100000 0.200000 0
2.200000 0.200000 0
2.300000 0.200000 0
2.400000 0.200000 0
2.500000 0.200000 0
2.600000 0.200000 0
2.700000 0.200000 0
2.800000 0.200000 0
2.900000 0.200000 0
3.000000 0.200000 0
3.100000 0.200000 0
3.200000 0.200000 0
3.300000 0.200000 0
3.400000 0.200000 0
3.500000 0.200000 0
3.600000 0.200000 0
3.700000 0.200000 0
3.800000 0.200000 0
3.900000 0.200000 0
4.000000 0.200000 0
4.100000 0.200000 0
4.200000 0.200000 0
4.300000 0.200000 0
4.400000 0.200000 0
4.500000 0.200000 0
4.600000 0.200000 0
4.700000 0.200000 0
4.800000 0.200000 0
4.900000 0.200000 0
5.000000 0.200000 0
5.100000 0.200000 0
5.200000 0.200000 0
5.300000 0.200000 0
5.400000 0.200000 0
5.500000 0.200000 0
5.600000 0.200000 0
5.700000 0.200000 0
5.800000 0.200000 0
5.900000 0.200000 0
6.000000 0.200000 0
6.100000 0.200000 0
6.200000 0.200000 0
6.300000 0.200000 0
6.400000 0.200000 0
6.500000 0.200000 0
6.600000 0.200000 0
6.700000 0.200000 0
6.800000 0.200000 0
6.900000 0.200000 0
7.000000 0.200000 0
7.100000 0.200000 0
7.200000 0.200000 0
7.300000 0.200000 0
7.400000 0.200000 0
7.500000 0.200000 0
7.600000 0.200000 0
7.700000 0.200000 0
7.800000 0.200000 0
7.900000 0.200000 0
8.000000 0.200000 0
8.100000 0.200000 0
8.200000 0.200000 0
8.300000 0.200000 0
8.400000 0.200000 0
8.500000 0.200000 0
8.600000 0.200000 0
8.700000 0.200000 0
8.800000 0.200000 0
8.900000 0.200000 0
9.000000 0.200000 0
9.100000 0.200000 0
9.200000 0.200000 0
9.300000 0.200000 0
9.400000 0.200000 0
9.500000 0.200000 0
9.600000 0.200000 0
9.700000 0.200000 0
9.800000 0.200000 0
9.900000 0.200000 0
10.000000 0.200000 0
0.000000 0.300000 0
0.100000 0.300000 0
0.200000 0.300000 0
0.300000 0.300000 0
0.400000 0.300000 0
0.500000 0.300000 0
0.600000 0.300000 0
0.700000 0.300000 0
0.800000 0.300000 0
0.900000 0.300000 0
1.000000 0.300000 0
1.100000 0.300000 0
1.200000 0.300000 0
1.300000 0.300000 0
1.400000 0.300000 0
1.500000 0.300000 0
1.600000 0.300000 0
1.700000 0.300000 0
1.800000 0.300000 0
1.900000 0.300000 0
2.000000 0.300000 0
2.100000 0.300000 0
2.200000 0.300000 0
2.300000 0.300000 0
2.400000 0.300000 0
2.500000 0.300000 0
2.600000 0.300000 0
2.700000 0.300000 0
2.800000 0.300000 0
2.900000 0.300000 0
3.000000 0.300000 0
3.100000 0.300000 0
3.200000 0.300000 0
3.300000 0.300000 0
3.400000 0.300000 0
3.500000 0.300000 0
3.600000 0.300000 0
3.700000 0.300000 0
3.800000 0.300000 0
3.900000 0.300000 0
4.000000 0.300000 0
4.100000 0.300000 0
4.200000 0.300000 0
4.300000 0.300000 0
4.400000 0.300000 0
4.500000 0.300000 0
4.600000 0.300000 0
4.700000 0.300000 0
4.800000 0.300000 0
4.900000 0.300000 0
5.000000 0.300000 0
5.100000 0.300000 0
5.200000 0.300000 0
5.300000 0.300000 0
5.400000 0.300000 0
5.500000 0.300000 0
5.600000 0.300000 0
5.700000 0.300000 0
5.800000 0.300000 0
5.900000 0.300000 0
6.000000 0.300000 0
6.100000 0.300000 0
6.200000 0.300000 0
6.300000 0.300000 0
6.400000 0.300000 0
6.500000 0.300000 0
6.600000 0.300000 0
6.700000 0.300000 0
6.800000 0.300000 0
6.900000 0.300000 0
7.000000 0.300000 0
7.100000 0.300000 0
7.200000 0.300000 0
7.300000 0.300000 0
7.400000 0.300000 0
7.500000 0.300000 0
7.600000 0.300000 0
7.700000 0.300000 0
7.800000 0.300000 0
7.900000 0.300000 0
8.000000 0.300000 0
8.100000 0.300000 0
8.200000 0.300000 0
8.300000 0.300000 0
8.400000 0.300000 0
8.500000 0.300000 0
8.600000 0.300000 0
8.700000 0.300000 0
8.800000 0.300000 0
8.900000 0.300000 0
9.000000 0.300000 0
9.100000 0.300000 0
9.200000 0.300000 0
9.300000 0.300000 0
9.400000 0.300000 0
9.500000 0.300000 0
9.600000 0.300000 0
9.700000 0.300000 0
9.800000 0.300000 0
9.900000 0.300000 0
10.000000 0.300000 0
0.000000 0.400000 0
0.100000 0.400000 0
0.200000 0.400000 0
0.300000 0.400000 0
0.400000 0.400000 0
0.500000 0.400000 0
0.600000 0.400000 0
0.700000 0.400000 0
0.800000 0.400000 0
0.900000 0.400000 0
1.000000 0.400000 0
1.100000 0.400000 0
1.200000 0.400000 0
1.300000 0.400000 0
1.400000 0.400000 0
1.500000 0.400000 0
1.600000 0.400000 0
1.700000 0.400000 0
1.800000 0.400000 0
1.900000 0.400000 0
2.000000 0.400000 0
2.100000 0.400000 0
2.200000 0.400000 0
2.300000 0.400000 0
2.400000 0.400000 0
2.500000 0.400000 0
2.600000 0.400000 0
2.700000 0.400000 0
2.800000 0.400000 0
2.900000 0.400000 0
3.000000 0.400000 0
3.100000 0.400000 0
3.200000 0.400000 0
3.300000 0.400000 0
3.400000 0.400000 0
3.500000 0.400000 0
3.600000 0.400000 0
3.700000 0.400000 0
3.800000 0.400000 0
3.900000 0.400000 0
4.000000 0.400000 0
4.100000 0.400000 0
4.200000 0.400000 0
4.300000 0.400000 0
4.400000 0.400000 0
4.500000 0.400000 0
4.600000 0.400000 0
4.700000 0.400000 0
4.800000 0.400000 0
4.900000 0.400000 0
5.000000 0.400000 0
5.100000 0.400000 0
5.200000 0.400000 0
5.300000 0.400000 0
5.400000 0.400000 0
5.500000 0.400000 0
5.600000 0.400000 0
5.700000 0.400000 0
5.800000 0.400000 0
5.900000 0.400000 0
6.000000 0.400000 0
6.100000 0.400000 0
6.200000 0.400000 0
6.300000 0.400000 0
6.400000 0.400000 0
6.500000 0.400000 0
6.600000 0.400000 0
6.700000 0.400000 0
6.800000 0.400000 0
6.900000 0.400000 0
7.000000 0.400000 0
7.100000 0.400000 0
7.200000 0.400000 0
7.300000 0.400000 0
7.400000 0.400000 0
7.500000 0.400000 0
7.600000 0.400000 0
7.700000 0.400000 0
7.800000 0.400000 0
7.900000 0.400000 0
8.000000 0.400000 0
8.100000 0.400000 0
8.200000 0.400000 0
8.300000 0.400000 0
8.400000 0.400000 0
8.500000 0.400000 0
8.600000 0.400000 0
[...]
POINT_DATA 2121 

VECTORS velocity float
0.500000 0.000000 0
-0.000000 0.000000 0
0.000005 0.000000 0
0.000016 0.000000 0
0.000034 0.000000 0
0.000061 0.000000 0
0.000090 0.000000 0
0.000128 0.000000 0
0.000168 0.000000 0
0.000207 0.000000 0
0.000236 0.000000 0
0.000246 0.000000 0
0.000228 0.000000 0
0.000169 0.000000 0
0.000059 0.000000 0
-0.000111 0.000000 0
-0.000342 0.000000 0
-0.000631 0.000000 0
-0.000961 0.000000 0
-0.001299 0.000000 0
-0.001597 0.000000 0
-0.001783 0.000000 0
-0.001784 0.000000 0
-0.001557 0.000000 0
-0.001103 0.000000 0
-0.000473 0.000000 0
0.000252 0.000000 0
0.000984 0.000000 0
0.001662 0.000000 0
0.002233 0.000000 0
0.002667 0.000000 0
0.002943 0.000000 0
0.003051 0.000000 0
0.002982 0.000000 0
0.002733 0.000000 0
0.002303 0.000000 0
0.001690 0.000000 0
0.000889 0.000000 0
-0.000110 0.000000 0
-0.001296 0.000000 0
-0.002558 0.000000 0
-0.003779 0.000000 0
-0.004820 0.000000 0
-0.005510 0.000000 0
-0.005691 0.000000 0
-0.005260 0.000000 0
-0.004226 0.000000 0
-0.002739 0.000000 0
-0.001072 0.000000 0
0.000536 0.000000 0
0.001997 0.000000 0
0.003226 0.000000 0
0.004173 0.000000 0
0.004817 0.000000 0
0.005159 0.000000 0
0.005219 0.000000 0
0.005019 0.000000 0
0.004577 0.000000 0
0.003907 0.000000 0
0.003016 0.000000 0
0.001915 0.000000 0
0.000646 0.000000 0
-0.000672 0.000000 0
-0.001873 0.000000 0
-0.002930 0.000000 0
-0.003849 0.000000 0
-0.004632 0.000000 0
-0.005263 0.000000 0
-0.005699 0.000000 0
-0.005861 0.000000 0
-0.005644 0.000000 0
-0.004952 0.000000 0
-0.003760 0.000000 0
-0.002180 0.000000 0
-0.000449 0.000000 0
0.001270 0.000000 0
0.002885 0.000000 0
0.004293 0.000000 0
0.005389 0.000000 0
0.006083 0.000000 0
0.006302 0.000000 0
0.006005 0.000000 0
0.005201 0.000000 0
0.003962 0.000000 0
0.002433 0.000000 0
0.000813 0.000000 0
-0.000661 0.000000 0
-0.001775 0.000000 0
-0.002584 0.000000 0
-0.003185 0.000000 0
-0.003664 0.000000 0
-0.004084 0.000000 0
-0.004481 0.000000 0
-0.004866 0.000000 0
-0.005219 0.000000 0
-0.005492 0.000000 0
-0.005628 0.000000 0
-0.005578 0.000000 0
-0.005333 0.000000 0
-0.004954 0.000000 0
-0.004707 0.000000 0
1.000000 -0.000002 0
1.002694 -0.004859 0
1.011007 -0.010481 0
1.025295 -0.016548 0
1.045936 -0.022839 0
1.073125 -0.028951 0
1.106578 -0.034187 0
1.145088 -0.037614 0
1.186239 -0.038288 0
1.226332 -0.035862 0
1.261992 -0.030921 0
1.291141 -0.024510 0
1.312993 -0.017651 0
1.327696 -0.011133 0
1.336038 -0.005512 0
1.339222 -0.001149 0
1.338704 0.001764 0
1.336053 0.003194 0
1.332803 0.003262 0
1.330308 0.002261 0
1.329538 0.000658 0
1.330877 -0.000892 0
1.333901 -0.001652 0
1.337342 -0.001060 0
1.339402 0.001104 0
1.338310 0.004664 0
1.332781 0.009140 0
1.322196 0.013964 0
1.306550 0.018609 0
1.286320 0.022666 0
1.262319 0.025859 0
1.235567 0.028007 0
1.207204 0.029005 0
1.178436 0.028792 0
1.150508 0.027336 0
1.124679 0.024621 0
1.102203 0.020631 0
1.084319 0.015325 0
1.072216 0.008628 0
1.066993 0.000660 0
1.069577 -0.008018 0
1.080550 -0.016580 0
1.099812 -0.024101 0
1.126265 -0.029530 0
1.157674 -0.031871 0
1.190798 -0.030460 0
1.221755 -0.025257 0
1.246657 -0.017040 0
1.262468 -0.007281 0
1.267735 0.002605 0
1.262693 0.011783 0
1.248466 0.019743 0
1.226638 0.026120 0
1.199047 0.030723 0
1.167603 0.033510 0
1.134173 0.034530 0
1.100525 0.033872 0
1.068303 0.031613 0
1.039024 0.027802 0
1.014056 0.022471 0
0.994545 0.015698 0
0.981296 0.007763 0
0.974694 -0.000579 0
0.974760 -0.008388 0
0.981182 -0.015210 0
0.993467 -0.020997 0
1.011026 -0.025759 0
1.033213 -0.029447 0
1.059291 -0.031870 0
1.088315 -0.032661 0
1.118926 -0.031307 0
1.149180 -0.027324 0
1.176542 -0.020575 0
1.198131 -0.011601 0
1.211229 -0.001545 0
1.214062 0.008573 0
1.206528 0.018135 0
1.189509 0.026587 0
1.164475 0.033350 0
1.133414 0.037890 0
1.098727 0.039755 0
1.063083 0.038645 0
1.029194 0.034521 0
0.999499 0.027725 0
0.975806 0.019035 0
0.959014 0.009610 0
0.949089 0.000898 0
0.945365 -0.005937 0
0.946804 -0.010736 0
0.952213 -0.013999 0
0.960626 -0.016233 0
0.971385 -0.017828 0
0.984114 -0.019023 0
0.998618 -0.019891 0
1.014734 -0.020332 0
1.032150 -0.020107 0
1.050269 -0.018920 0
1.068168 -0.016577 0
1.084704 -0.013121 0
1.098738 -0.010525 0
1.109958 -0.009668 0
1.000000 -0.000004 0
1.003023 -0.010999 0
1.011812 -0.022582 0
1.026685 -0.034911 0
1.048242 -0.047824 0
1.077128 -0.060639 0
1.113610 -0.071957 0
1.156858 -0.079664 0
1.204396 -0.081259 0
1.250312 -0.075772 0
1.289885 -0.064831 0
1.321047 -0.051025 0
1.343518 -0.036581 0
1.357915 -0.023072 0
1.365362 -0.011555 0
1.367323 -0.002696 0
1.365459 0.003142 0
1.361529 0.005876 0
1.357292 0.005732 0
1.354345 0.003269 0
1.353962 -0.000557 0
1.356816 -0.004343 0
1.362535 -0.006442 0
1.369456 -0.005481 0
1.375038 -0.000956 0
1.376883 0.006619 0
1.373496 0.016109 0
1.364294 0.026232 0
1.349435 0.035877 0
1.329608 0.044229 0
1.305782 0.050748 0
1.279076 0.055108 0
1.250671 0.057122 0
1.221780 0.056684 0
1.193624 0.053744 0
1.167418 0.048289 0
1.144344 0.040343 0
1.125519 0.029970 0
1.111947 0.017307 0
1.104515 0.002620 0
1.104141 -0.013575 0
1.111734 -0.030252 0
1.127662 -0.045728 0
1.151405 -0.057869 0
1.181503 -0.064536 0
1.215588 -0.064078 0
1.250343 -0.055851 0
1.281614 -0.040703 0
1.305043 -0.021068 0
1.317344 -0.000217 0
1.317847 0.019275 0
1.307981 0.036056 0
1.289656 0.049415 0
1.264964 0.059030 0
1.235979 0.064867 0
1.204647 0.067069 0
1.172728 0.065862 0
1.141768 0.061493 0
1.113073 0.054237 0
1.087661 0.044469 0
1.066203 0.032750 0
1.048999 0.019841 0
1.036093 0.006526 0
1.027650 -0.006499 0
1.023897 -0.018717 0
1.024886 -0.029855 0
1.030590 -0.039756 0
1.041034 -0.048274 0
1.056339 -0.055110 0
1.076558 -0.059641 0
1.101339 -0.060867 0
1.129622 -0.057617 0
1.159506 -0.048951 0
1.188243 -0.034686 0
1.212403 -0.015929 0
1.228517 0.004702 0
1.234530 0.024554 0
1.230771 0.042052 0
1.218469 0.056092 0
1.199347 0.065743 0
1.175425 0.070325 0
1.148820 0.069528 0
1.121518 0.063579 0
1.095164 0.053384 0
1.070923 0.040483 0
1.049483 0.026715 0
1.031203 0.013646 0
1.016438 0.002283 0
1.005430 -0.006851 0
0.997994 -0.013825 0
0.993732 -0.019176 0
0.992369 -0.023493 0
0.993879 -0.027239 0
0.998431 -0.030626 0
1.006230 -0.033537 0
1.017279 -0.035540 0
1.031215 -0.036023 0
1.047250 -0.034440 0
1.064211 -0.030575 0
1.080691 -0.025259 0
1.093257 -0.022178 0
1.000000 -0.000005 0
1.002630 -0.016657 0
1.010610 -0.034133 0
1.024554 -0.052981 0
1.045575 -0.073291 0
1.075184 -0.094317 0
1.114866 -0.113924 0
1.164964 -0.128417 0
1.223995 -0.131753 0
1.279149 -0.121363 0
1.323192 -0.101666 0
1.355167 -0.078153 0
1.376297 -0.054529 0
1.388081 -0.032987 0
1.392110 -0.014929 0
1.390191 -0.001254 0
1.384204 0.007552 0
1.376203 0.011365 0
1.368309 0.010462 0
1.362507 0.005610 0
1.360548 -0.001797 0
1.363798 -0.009452 0
1.372262 -0.014286 0
1.383755 -0.013567 0
1.394301 -0.006339 0
1.399936 0.006189 0
1.398653 0.021728 0
1.390056 0.038026 0
1.374750 0.053291 0
1.353835 0.066316 0
1.328577 0.076386 0
1.300247 0.083113 0
1.270081 0.086296 0
1.239283 0.085833 0
1.209033 0.081691 0
1.180486 0.073893 0
1.154750 0.062523 0
1.132860 0.047715 0
1.115731 0.029627 0
1.104136 0.008460 0
1.098739 -0.015243 0
1.100229 -0.040103 0
1.109025 -0.063769 0
1.125149 -0.083367 0
1.148419 -0.096048 0
1.178317 -0.099293 0
1.213267 -0.091275 0
1.249945 -0.071735 0
1.283275 -0.043009 0
1.307497 -0.010200 0
1.318533 0.021141 0
1.316877 0.047926 0
1.304875 0.069129 0
1.285010 0.084394 0
1.259650 0.093821 0
1.230922 0.097777 0
1.200640 0.096747 0
1.170296 0.091264 0
1.141052 0.081906 0
1.113764 0.069338 0
1.089024 0.054357 0
1.067213 0.037868 0
1.048508 0.020766 0
1.032819 0.003804 0
1.019938 -0.012450 0
1.009808 -0.027693 0
1.002940 -0.041910 0
1.000391 -0.055197 0
1.003548 -0.067395 0
1.013603 -0.077660 0
1.030916 -0.084370 0
1.054779 -0.085490 0
1.083548 -0.079194 0
1.114885 -0.064496 0
1.145919 -0.041819 0
1.173275 -0.013556 0
1.193269 0.015879 0
1.203960 0.042644 0
1.205793 0.064770 0
1.199857 0.080930 0
1.187558 0.090278 0
1.170398 0.092549 0
1.149802 0.088176 0
1.127041 0.078320 0
1.103254 0.064716 0
1.079508 0.049330 0
1.056751 0.033942 0
1.035627 0.019835 0
1.016470 0.007704 0
0.999499 -0.002306 0
0.984889 -0.010612 0
0.973048 -0.017978 0
0.964716 -0.025088 0
0.960700 -0.032244 0
0.961533 -0.039182 0
0.967230 -0.045093 0
0.977223 -0.048892 0
0.990451 -0.049574 0
1.005487 -0.046564 0
1.020660 -0.039573 0
1.032759 -0.034935 0
1.000000 -0.000006 0
1.002102 -0.021598 0
1.008624 -0.044505 0
1.020475 -0.069883 0
1.039402 -0.098455 0
1.068169 -0.129934 0
1.110536 -0.161750 0
1.169800 -0.188805 0
1.250169 -0.195453 0
1.317452 -0.174978 0
1.363095 -0.140857 0
1.391809 -0.104139 0
1.408270 -0.069505 0
1.414927 -0.038895 0
1.413503 -0.013673 0
1.405660 0.005204 0
1.393291 0.017131 0
1.378813 0.021784 0
1.364841 0.019443 0
1.353845 0.011042 0
1.347935 -0.001835 0
1.349341 -0.016052 0
1.359543 -0.026404 0
1.376534 -0.027533 0
1.394796 -0.017153 0
1.407310 0.002266 0
1.409900 0.025993 0
1.402732 0.050132 0
1.387282 0.072095 0
1.365360 0.090398 0
1.338641 0.104331 0
1.308564 0.113598 0
1.276396 0.118079 0
1.243319 0.117725 0
1.210484 0.112534 0
1.179026 0.102565 0
1.150046 0.087962 0
1.124541 0.068983 0
1.103225 0.046025 0
1.086163 0.019607 0
1.072594 -0.009671 0
1.061831 -0.040536 0
1.054908 -0.070644 0
1.053733 -0.097257 0
1.060965 -0.117697 0
1.078988 -0.128919 0
1.108275 -0.127474 0
1.146675 -0.110709 0
1.189455 -0.078621 0
1.229753 -0.035480 0
1.259817 0.009886 0
1.274851 0.049706 0
1.276561 0.081277 0
1.267636 0.104251 0
1.250713 0.118951 0
1.228171 0.126075 0
1.202062 0.126484 0
1.174077 0.121078 0
1.145553 0.110766 0
1.117506 0.096494 0
1.090644 0.079298 0
1.065312 0.060354 0
1.041396 0.040916 0
1.018336 0.022067 0
0.995546 0.004290 0
0.973216 -0.012860 0
0.952976 -0.030341 0
0.937952 -0.048881 0
0.931220 -0.068322 0
0.934349 -0.087008 0
0.947132 -0.102041 0
0.968174 -0.110247 0
0.995526 -0.109056 0
1.027043 -0.097056 0
1.060485 -0.074320 0
1.093410 -0.042650 0
1.122832 -0.006135 0
1.145134 0.029523 0
1.158994 0.060190 0
1.164714 0.083975 0
1.163050 0.099781 0
1.154977 0.107281 0
1.141542 0.106935 0
1.123811 0.099931 0
1.102866 0.088016 0
1.079769 0.073217 0
1.055453 0.057524 0
1.030629 0.042561 0
1.005849 0.029274 0
0.981796 0.017752 0
0.959553 0.007272 0
0.940529 -0.003323 0
0.926172 -0.014893 0
0.917628 -0.027443 0
0.915322 -0.040068 0
0.918824 -0.051231 0
0.927083 -0.059245 0
0.938700 -0.062705 0
0.952090 -0.060783 0
0.965529 -0.052531 0
0.976414 -0.046750 0
1.000000 -0.000008 0
1.001269 -0.025275 0
1.005314 -0.052511 0
1.013161 -0.083764 0
1.026989 -0.120987 0
1.050869 -0.165459 0
1.091882 -0.215565 0
1.159747 -0.268058 0
1.277251 -0.279413 0
1.350584 -0.234297 0
1.383896 -0.176030 0
1.398829 -0.123336 0
1.404927 -0.077656 0
1.403795 -0.038228 0
1.395515 -0.005668 0
1.380016 0.018957 0
1.358999 0.034411 0
1.335287 0.039829 0
1.312183 0.035442 0
1.292761 0.022527 0
1.279260 0.002711 0
1.273480 -0.021063 0
1.279510 -0.041490 0
1.298009 -0.048837 0
1.324777 -0.037119 0
1.350338 -0.008910 0
1.363848 0.026306 0
1.363635 0.060641 0
1.352986 0.090659 0
1.334758 0.114951 0
1.310993 0.133175 0
1.283116 0.145352 0
1.252271 0.151535 0
1.219529 0.151739 0
1.185974 0.145977 0
1.152702 0.134325 0
1.120754 0.117002 0
1.090983 0.094531 0
1.063694 0.068000 0
1.037927 0.039088 0
1.011140 0.009089 0
0.980996 -0.022415 0
0.949492 -0.055667 0
0.924950 -0.089418 0
0.915161 -0.121297 0
0.923088 -0.146598 0
0.947768 -0.158960 0
0.986173 -0.152915 0
1.034076 -0.126092 0
1.086064 -0.080571 0
1.135140 -0.023965 0
1.172715 0.031178 0
1.194929 0.076340 0
1.203804 0.110238 0
1.201737 0.133283 0
1.191059 0.146424 0
1.173913 0.150838 0
1.152173 0.147770 0
1.127407 0.138473 0
1.100804 0.124244 0
1.073037 0.106547 0
1.044075 0.087112 0
1.013257 0.067738 0
0.980017 0.049650 0
0.945148 0.032666 0
0.911535 0.014876 0
0.883373 -0.006647 0
0.864521 -0.033442 0
0.857132 -0.063790 0
0.860839 -0.093570 0
0.873849 -0.118194 0
0.894142 -0.133882 0
0.919945 -0.138062 0
0.949703 -0.129456 0
0.981923 -0.108188 0
1.015033 -0.075907 0
1.047214 -0.035850 0
1.075742 0.006476 0
1.097525 0.045186 0
1.111773 0.076871 0
1.118526 0.100013 0
1.118203 0.114056 0
1.111440 0.119341 0
1.098986 0.116994 0
1.081633 0.108756 0
1.060145 0.096741 0
1.035244 0.083078 0
1.007737 0.069434 0
0.978795 0.056533 0
0.950191 0.043988 0
0.924193 0.030652 0
0.903022 0.015402 0
0.888175 -0.002187 0
0.880135 -0.021394 0
0.878502 -0.040378 0
0.882235 -0.056854 0
0.890019 -0.068768 0
0.900480 -0.074581 0
0.912220 -0.073392 0
0.923774 -0.063896 0
0.933097 -0.057124 0
1.000000 -0.000009 0
1.000074 -0.026911 0
1.000436 -0.056404 0
1.001813 -0.091561 0
1.006054 -0.136169 0
1.017474 -0.194835 0
1.045856 -0.270635 0
1.111144 -0.374181 0
1.278634 -0.386296 0
1.327894 -0.281629 0
1.316793 -0.189110 0
1.301836 -0.125179 0
1.292345 -0.074479 0
1.284175 -0.029489 0
1.269699 0.010103 0
1.246341 0.041727 0
1.215359 0.061874 0
1.179946 0.068613 0
1.144061 0.061980 0
1.111310 0.043971 0
1.084140 0.017444 0
1.063805 -0.016313 0
1.053859 -0.050948 0
1.063658 -0.072808 0
1.095124 -0.069479 0
1.140331 -0.036804 0
1.183424 0.012693 0
1.209109 0.060991 0
1.218990 0.100967 0
1.218310 0.132385 0
1.209544 0.155967 0
1.194010 0.172314 0
1.172718 0.181661 0
1.146710 0.184016 0
1.117102 0.179355 0
1.084880 0.167780 0
1.050352 0.149675 0
1.012389 0.126037 0
0.968524 0.099078 0
0.917379 0.072161 0
0.862150 0.047262 0
0.810702 0.021115 0
0.771273 -0.014592 0
0.749724 -0.062920 0
0.747176 -0.115830 0
0.761112 -0.161523 0
0.788586 -0.190559 0
0.827281 -0.197020 0
0.875037 -0.178520 0
0.929108 -0.136553 0
0.985624 -0.076769 0
1.038575 -0.010086 0
1.079531 0.050185 0
1.106424 0.097439 0
1.120739 0.131691 0
1.124204 0.153896 0
1.118612 0.165366 0
1.105647 0.167580 0
1.086723 0.162132 0
1.062753 0.150860 0
1.033936 0.136022 0
0.999878 0.120129 0
0.960486 0.104971 0
0.917447 0.090173 0
0.875095 0.072770 0
0.839368 0.048914 0
0.815134 0.016673 0
0.803794 -0.022640 0
0.803638 -0.064639 0
0.811807 -0.103723 0
0.825943 -0.135343 0
0.844616 -0.156342 0
0.867060 -0.164617 0
0.892731 -0.159036 0
0.920958 -0.139654 0
0.950802 -0.107946 0
0.981034 -0.066849 0
1.010098 -0.020791 0
1.035193 0.024156 0
1.054197 0.062971 0
1.066435 0.093350 0
1.071745 0.114367 0
1.070271 0.126152 0
1.062326 0.129737 0
1.048307 0.126853 0
1.028695 0.119601 0
1.004213 0.109928 0
0.976114 0.099005 0
0.946423 0.086815 0
0.917822 0.072352 0
0.893085 0.054441 0
0.874320 0.032695 0
0.862444 0.007994 0
0.857093 -0.017770 0
0.857141 -0.042167 0
0.861283 -0.062747 0
0.868312 -0.077489 0
0.877165 -0.084905 0
0.886824 -0.084077 0
0.896219 -0.073407 0
0.903752 -0.065772 0
1.000000 -0.000009 0
0.998618 -0.025714 0
0.994372 -0.054256 0
0.987123 -0.089386 0
0.977025 -0.136653 0
0.965635 -0.205268 0
0.959434 -0.309243 0
0.980881 -0.500844 0
1.143546 -0.496170 0
1.131043 -0.272462 0
1.028628 -0.149981 0
0.974134 -0.098896 0
0.951191 -0.060001 0
0.946599 -0.015586 0
0.932165 0.032168 0
0.904369 0.073309 0
0.862836 0.100817 0
0.808996 0.111137 0
0.746496 0.104085 0
0.683295 0.082448 0
0.632366 0.050209 0
0.606114 0.009205 0
0.609265 -0.041355 0
0.639564 -0.090102 0
0.693228 -0.113790 0
0.765428 -0.097212 0
0.847623 -0.042476 0
0.922625 0.025070 0
0.975625 0.081453 0
1.009139 0.124391 0
1.028528 0.157470 0
1.035747 0.182173 0
1.031996 0.198829 0
1.018306 0.207349 0
0.995375 0.207802 0
0.963086 0.201069 0
0.920207 0.189489 0
0.865224 0.176354 0
0.799098 0.163009 0
0.728578 0.145463 0
0.666295 0.115769 0
0.625185 0.068467 0
0.610615 0.005318 0
0.616401 -0.065314 0
0.633072 -0.132681 0
0.655504 -0.188007 0
0.682787 -0.225132 0
0.716068 -0.239373 0
0.756523 -0.227927 0
0.804023 -0.191163 0
0.856721 -0.133435 0
0.911269 -0.062733 0
0.961503 0.008487 0
1.000425 0.069027 0
1.027197 0.115500 0
1.042476 0.148548 0
1.047252 0.169392 0
1.042566 0.179655 0
1.029214 0.181363 0
1.007535 0.177027 0
0.977551 0.169418 0
0.939816 0.160557 0
0.896792 0.150165 0
0.853561 0.135038 0
0.816578 0.110743 0
0.790913 0.074835 0
0.778192 0.028927 0
0.776725 -0.021945 0
0.782756 -0.071801 0
0.793046 -0.115874 0
0.805828 -0.151001 0
0.820553 -0.174999 0
0.837405 -0.186178 0
0.856784 -0.183357 0
0.878843 -0.166263 0
0.903223 -0.135987 0
0.929059 -0.095151 0
0.955121 -0.047686 0
0.979691 0.001084 0
1.000112 0.045627 0
1.015014 0.082464 0
1.023689 0.110220 0
1.025800 0.128759 0
1.021247 0.138955 0
1.010142 0.142383 0
0.992930 0.140830 0
0.970642 0.135654 0
0.945113 0.127219 0
0.918912 0.114824 0
0.894845 0.097326 0
0.875231 0.074154 0
0.861347 0.046043 0
0.853335 0.015040 0
0.850495 -0.016090 0
0.851630 -0.044565 0
0.855544 -0.068023 0
0.861269 -0.084648 0
0.868056 -0.093090 0
0.875271 -0.092445 0
0.882264 -0.080822 0
0.887837 -0.072496 0
1.000000 -0.000009 0
0.997196 -0.021289 0
0.988379 -0.044915 0
0.972192 -0.074218 0
0.945984 -0.114686 0
0.905000 -0.177251 0
0.840555 -0.285889 0
0.737391 -0.558300 0
0.553498 -0.536465 0
-0.000084 -0.166719 0
0.404087 -0.032208 0
0.335922 -0.047748 0
0.345892 -0.046948 0
0.379855 -0.010462 0
0.402653 0.052341 0
0.391281 0.111067 0
0.355186 0.157257 0
0.300096 0.184961 0
0.235552 0.187684 0
0.177184 0.158097 0
0.144927 0.094614 0
0.153704 0.006776 0
0.196936 -0.084401 0
0.257151 -0.156769 0
0.327842 -0.195345 0
0.409107 -0.191202 0
0.502157 -0.144508 0
0.603202 -0.067016 0
0.694808 0.014447 0
0.763287 0.079476 0
0.810315 0.129353 0
0.839625 0.168840 0
0.852489 0.199096 0
0.849450 0.220632 0
0.830430 0.234570 0
0.795070 0.242943 0
0.744177 0.247533 0
0.682462 0.247143 0
0.620406 0.235725 0
0.571616 0.204966 0
0.545889 0.150658 0
0.544264 0.076801 0
0.560206 -0.005801 0
0.582898 -0.085373 0
0.604927 -0.154930 0
0.624228 -0.211240 0
0.642201 -0.251128 0
0.662207 -0.270763 0
0.687999 -0.266482 0
0.721950 -0.236755 0
0.763895 -0.184019 0
0.811308 -0.114872 0
0.860201 -0.038974 0
0.903695 0.031741 0
0.937091 0.089637 0
0.959694 0.133838 0
0.971493 0.165272 0
0.972692 0.185615 0
0.963452 0.197159 0
0.943989 0.202518 0
0.915212 0.203737 0
0.879777 0.200885 0
0.842658 0.191222 0
0.810124 0.170385 0
0.787269 0.135417 0
0.775939 0.087300 0
0.774713 0.030861 0
0.780465 -0.027203 0
0.789710 -0.080958 0
0.799975 -0.126794 0
0.810020 -0.162850 0
0.819700 -0.187920 0
0.829724 -0.200850 0
0.841251 -0.200478 0
0.855330 -0.186099 0
0.872385 -0.158167 0
0.892025 -0.118750 0
0.913205 -0.071427 0
0.934511 -0.020838 0
0.953769 0.027646 0
0.968999 0.069772 0
0.979047 0.103579 0
0.983201 0.128591 0
0.981090 0.145391 0
0.972741 0.155166 0
0.958761 0.159096 0
0.940530 0.157741 0
0.920190 0.150734 0
0.900283 0.137084 0
0.883110 0.116033 0
0.870153 0.087939 0
0.861882 0.054592 0
0.857950 0.018847 0
0.857556 -0.016062 0
0.859668 -0.047214 0
0.863300 -0.072383 0
0.867700 -0.089997 0
0.872375 -0.098904 0
0.877032 -0.098281 0
0.881460 -0.085969 0
0.884944 -0.077140 0
1.000000 -0.000009 0
0.996211 -0.014100 0
0.984231 -0.029258 0
0.961863 -0.046998 0
0.924493 -0.069468 0
0.862854 -0.099846 0
0.757152 -0.141642 0
0.563899 -0.213795 0
0.072561 -0.000392 0
-0.534949 0.132152 0
0.000000 0.000033 0
-0.030845 -0.051579 0
-0.054910 -0.103935 0
-0.043567 -0.072342 0
-0.028521 0.020752 0
-0.023713 0.120785 0
-0.036496 0.192010 0
-0.060729 0.230776 0
-0.083052 0.226997 0
-0.087928 0.173066 0
-0.059785 0.073678 0
-0.006725 -0.042812 0
0.048562 -0.144802 0
0.100643 -0.221010 0
0.152403 -0.265749 0
0.209953 -0.271531 0
0.279059 -0.236576 0
0.361592 -0.167586 0
0.452945 -0.078639 0
0.536251 0.008878 0
0.598992 0.081127 0
0.641331 0.139993 0
0.664410 0.188998 0
0.668451 0.229403 0
0.653978 0.262177 0
0.623413 0.287318 0
0.582981 0.302094 0
0.543347 0.300125 0
0.516758 0.273855 0
0.511326 0.219984 0
0.527068 0.143126 0
0.557240 0.054155 0
0.591405 -0.033310 0
0.620747 -0.110031 0
0.642121 -0.174012 0
0.655014 -0.225284 0
0.661159 -0.263117 0
0.664504 -0.285177 0
0.670537 -0.287673 0
0.684480 -0.267063 0
0.709032 -0.222798 0
0.743246 -0.159043 0
0.783367 -0.083904 0
0.824111 -0.007867 0
0.858603 0.059497 0
0.883977 0.114141 0
0.899210 0.156390 0
0.903848 0.187692 0
0.897856 0.210061 0
0.882009 0.225263 0
0.858612 0.233627 0
0.831955 0.233108 0
0.807649 0.219816 0