# vtk DataFile Version 2.0
generated by CFD-lab course output (written by Tobias Neckel) 
ASCII

DATASET STRUCTURED_GRID
DIMENSIONS  101 21 1 
POINTS 2121 float

0.000000 0.000000 0
0.100000 0.000000 0
0.200000 0.000000 0
0.300000 0.000000 0
0.400000 0.000000 0
0.500000 0.000000 0
0.600000 0.000000 0
0.700000 0.000000 0
0.800000 0.000000 0
0.900000 0.000000 0
1.000000 0.000000 0
1.100000 0.000000 0
1.200000 0.000000 0
1.300000 0.000000 0
1.400000 0.000000 0
1.500000 0.000000 0
1.600000 0.000000 0
1.700000 0.000000 0
1.800000 0.000000 0
1.900000 0.000000 0
2.000000 0.000000 0
2.100000 0.000000 0
2.200000 0.000000 0
2.300000 0.000000 0
2.400000 0.000000 0
2.500000 0.000000 0
2.600000 0.000000 0
2.700000 0.000000 0
2.800000 0.000000 0
2.900000 0.000000 0
3.000000 0.000000 0
3.100000 0.000000 0
3.200000 0.000000 0
3.300000 0.000000 0
3.400000 0.000000 0
3.500000 0.000000 0
3.600000 0.000000 0
3.700000 0.000000 0
3.800000 0.000000 0
3.900000 0.000000 0
4.000000 0.000000 0
4.100000 0.000000 0
4.200000 0.000000 0
4.300000 0.000000 0
4.400000 0.000000 0
4.500000 0.000000 0
4.600000 0.000000 0
4.700000 0.000000 0
4.800000 0.000000 0
4.900000 0.000000 0
5.000000 0.000000 0
5.100000 0.000000 0
5.200000 0.000000 0
5.300000 0.000000 0
5.400000 0.000000 0
5.500000 0.000000 0
5.600000 0.000000 0
5.700000 0.000000 0
5.800000 0.000000 0
5.900000 0.000000 0
6.000000 0.000000 0
6.100000 0.000000 0
6.200000 0.000000 0
6.300000 0.000000 0
6.400000 0.000000 0
6.500000 0.000000 0
6.600000 0.000000 0
6.700000 0.000000 0
6.800000 0.000000 0
6.900000 0.000000 0
7.000000 0.000000 0
7.100000 0.000000 0
7.200000 0.000000 0
7.300000 0.000000 0
7.400000 0.000000 0
7.500000 0.000000 0
7.600000 0.000000 0
7.700000 0.000000 0
7.800000 0.000000 0
7.900000 0.000000 0
8.000000 0.000000 0
8.100000 0.000000 0
8.200000 0.000000 0
8.300000 0.000000 0
8.400000 0.000000 0
8.500000 0.000000 0
8.600000 0.000000 0
8.700000 0.000000 0
8.800000 0.000000 0
8.900000 0.000000 0
9.000000 0.000000 0
9.100000 0.000000 0
9.200000 0.000000 0
9.300000 0.000000 0
9.400000 0.000000 0
9.500000 0.000000 0
9.600000 0.000000 0
9.700000 0.000000 0
9.800000 0.000000 0
9.900000 0.000000 0
10.000000 0.000000 0
0.000000 0.100000 0
0.100000 0.100000 0
0.200000 0.100000 0
0.300000 0.100000 0
0.400000 0.100000 0
0.500000 0.100000 0
0.600000 0.100000 0
0.700000 0.100000 0
0.800000 0.100000 0
0.900000 0.100000 0
1.000000 0.100000 0
1.100000 0.100000 0
1.200000 0.100000 0
1.300000 0.100000 0
1.400000 0.100000 0
1.500000 0.100000 0
1.600000 0.100000 0
1.700000 0.100000 0
1.800000 0.100000 0
1.900000 0.100000 0
2.000000 0.100000 0
2.100000 0.100000 0
2.200000 0.100000 0
2.300000 0.100000 0
2.400000 0.100000 0
2.500000 0.100000 0
2.600000 0.100000 0
2.700000 0.100000 0
2.800000 0.100000 0
2.900000 0.100000 0
3.000000 0.100000 0
3.100000 0.100000 0
3.200000 0.100000 0
3.300000 0.100000 0
3.400000 0.100000 0
3.500000 0.100000 0
3.600000 0.100000 0
3.700000 0.100000 0
3.800000 0.100000 0
3.900000 0.100000 0
4.000000 0.100000 0
4.100000 0.100000 0
4.200000 0.100000 0
4.300000 0.100000 0
4.400000 0.100000 0
4.500000 0.100000 0
4.600000 0.100000 0
4.700000 0.100000 0
4.800000 0.100000 0
4.900000 0.100000 0
5.000000 0.100000 0
5.100000 0.100000 0
5.200000 0.100000 0
5.300000 0.100000 0
5.400000 0.100000 0
5.500000 0.100000 0
5.600000 0.100000 0
5.700000 0.100000 0
5.800000 0.100000 0
5.900000 0.100000 0
6.000000 0.100000 0
6.100000 0.100000 0
6.200000 0.100000 0
6.300000 0.100000 0
6.400000 0.100000 0
6.500000 0.100000 0
6.600000 0.100000 0
6.700000 0.100000 0
6.800000 0.100000 0
6.900000 0.100000 0
7.000000 0.100000 0
7.100000 0.100000 0
7.200000 0.100000 0
7.300000 0.100000 0
7.400000 0.100000 0
7.500000 0.100000 0
7.600000 0.100000 0
7.700000 0.100000 0
7.800000 0.100000 0
7.900000 0.100000 0
8.000000 0.100000 0
8.100000 0.100000 0
8.200000 0.100000 0
8.300000 0.100000 0
8.400000 0.100000 0
8.500000 0.100000 0
8.600000 0.100000 0
8.700000 0.100000 0
8.800000 0.100000 0
8.900000 0.100000 0
9.000000 0.100000 0
9.100000 0.100000 0
9.200000 0.100000 0
9.300000 0.100000 0
9.400000 0.100000 0
9.500000 0.100000 0
9.600000 0.100000 0
9.700000 0.100000 0
9.800000 0.100000 0
9.900000 0.100000 0
10.000000 0.100000 0
0.000000 0.200000 0
0.100000 0.200000 0
0.200000 0.200000 0
0.300000 0.200000 0
0.400000 0.200000 0
0.500000 0.200000 0
0.600000 0.200000 0
0.700000 0.200000 0
0.800000 0.200000 0
0.900000 0.200000 0
1.000000 0.200000 0
1.100000 0.200000 0
1.200000 0.200000 0
1.300000 0.200000 0
1.400000 0.200000 0
1.500000 0.200000 0
1.600000 0.200000 0
1.700000 0.200000 0
1.800000 0.200000 0
1.900000 0.200000 0
2.000000 0.200000 0
2.100000 0.200000 0
2.200000 0.200000 0
2.300000 0.200000 0
2.400000 0.200000 0
2.500000 0.200000 0
2.600000 0.200000 0
2.700000 0.200000 0
2.800000 0.200000 0
2.900000 0.200000 0
3.000000 0.200000 0
3.100000 0.200000 0
3.200000 0.200000 0
3.300000 0.200000 0
3.400000 0.200000 0
3.500000 0.200000 0
3.600000 0.200000 0
3.700000 0.200000 0
3.800000 0.200000 0
3.900000 0.200000 0
4.000000 0.200000 0
4.100000 0.200000 0
4.200000 0.200000 0
4.300000 0.200000 0
4.400000 0.200000 0
4.500000 0.200000 0
4.600000 0.200000 0
4.700000 0.200000 0
4.800000 0.200000 0
4.900000 0.200000 0
5.000000 0.200000 0
5.100000 0.200000 0
5.200000 0.200000 0
5.300000 0.200000 0
5.400000 0.200000 0
5.500000 0.200000 0
5.600000 0.200000 0
5.700000 0.200000 0
5.800000 0.200000 0
5.900000 0.200000 0
6.000000 0.200000 0
6.100000 0.200000 0
6.200000 0.200000 0
6.300000 0.200000 0
6.400000 0.200000 0
6.500000 0.200000 0
6.600000 0.200000 0
6.700000 0.200000 0
6.800000 0.200000 0
6.900000 0.200000 0
7.000000 0.200000 0
7.100000 0.200000 0
7.200000 0.200000 0
7.300000 0.200000 0
7.400000 0.200000 0
7.500000 0.200000 0
7.600000 0.200000 0
7.700000 0.200000 0
7.800000 0.200000 0
7.900000 0.200000 0
8.000000 0.200000 0
8.100000 0.200000 0
8.200000 0.200000 0
8.300000 0.200000 0
8.400000 0.200000 0
8.500000 0.200000 0
8.600000 0.200000 0
8.700000 0.200000 0
8.800000 0.200000 0
8.900000 0.200000 0
9.000000 0.200000 0
9.100000 0.200000 0
9.200000 0.200000 0
9.300000 0.200000 0
9.400000 0.200000 0
9.500000 0.200000 0
9.600000 0.200000 0
9.700000 0.200000 0
9.800000 0.200000 0
9.900000 0.200000 0
10.000000 0.200000 0
0.000000 0.300000 0
0.100000 0.300000 0
0.200000 0.300000 0
0.300000 0.300000 0
0.400000 0.300000 0
0.500000 0.300000 0
0.600000 0.300000 0
0.700000 0.300000 0
0.800000 0.300000 0
0.900000 0.300000 0
1.000000 0.300000 0
1.100000 0.300000 0
1.200000 0.300000 0
1.300000 0.300000 0
1.400000 0.300000 0
1.500000 0.300000 0
1.600000 0.300000 0
1.700000 0.300000 0
1.800000 0.300000 0
1.900000 0.300000 0
2.000000 0.300000 0
2.100000 0.300000 0
2.200000 0.300000 0
2.300000 0.300000 0
2.400000 0.300000 0
2.500000 0.300000 0
2.600000 0.300000 0
2.700000 0.300000 0
2.800000 0.300000 0
2.900000 0.300000 0
3.000000 0.300000 0
3.100000 0.300000 0
3.200000 0.300000 0
3.300000 0.300000 0
3.400000 0.300000 0
3.500000 0.300000 0
3.600000 0.300000 0
3.700000 0.300000 0
3.800000 0.300000 0
3.900000 0.300000 0
4.000000 0.300000 0
4.100000 0.300000 0
4.200000 0.300000 0
4.300000 0.300000 0
4.400000 0.300000 0
4.500000 0.300000 0
4.600000 0.300000 0
4.700000 0.300000 0
4.800000 0.300000 0
4.900000 0.300000 0
5.000000 0.300000 0
5.100000 0.300000 0
5.200000 0.300000 0
5.300000 0.300000 0
5.400000 0.300000 0
5.500000 0.300000 0
5.600000 0.300000 0
5.700000 0.300000 0
5.800000 0.300000 0
5.900000 0.300000 0
6.000000 0.300000 0
6.100000 0.300000 0
6.200000 0.300000 0
6.300000 0.300000 0
6.400000 0.300000 0
6.500000 0.300000 0
6.600000 0.300000 0
6.700000 0.300000 0
6.800000 0.300000 0
6.900000 0.300000 0
7.000000 0.300000 0
7.100000 0.300000 0
7.200000 0.300000 0
7.300000 0.300000 0
7.400000 0.300000 0
7.500000 0.300000 0
7.600000 0.300000 0
7.700000 0.300000 0
7.800000 0.300000 0
7.900000 0.300000 0
8.000000 0.300000 0
8.100000 0.300000 0
8.200000 0.300000 0
8.300000 0.300000 0
8.400000 0.300000 0
8.500000 0.300000 0
8.600000 0.300000 0
8.700000 0.300000 0
8.800000 0.300000 0
8.900000 0.300000 0
9.000000 0.300000 0
9.100000 0.300000 0
9.200000 0.300000 0
9.300000 0.300000 0
9.400000 0.300000 0
9.500000 0.300000 0
9.600000 0.300000 0
9.700000 0.300000 0
9.800000 0.300000 0
9.900000 0.300000 0
10.000000 0.300000 0
0.000000 0.400000 0
0.100000 0.400000 0
0.200000 0.400000 0
0.300000 0.400000 0
0.400000 0.400000 0
0.500000 0.400000 0
0.600000 0.400000 0
0.700000 0.400000 0
0.800000 0.400000 0
0.900000 0.400000 0
1.000000 0.400000 0
1.100000 0.400000 0
1.200000 0.400000 0
1.300000 0.400000 0
1.400000 0.400000 0
1.500000 0.400000 0
1.600000 0.400000 0
1.700000 0.400000 0
1.800000 0.400000 0
1.900000 0.400000 0
2.000000 0.400000 0
2.100000 0.400000 0
2.200000 0.400000 0
2.300000 0.400000 0
2.400000 0.400000 0
2.500000 0.400000 0
2.600000 0.400000 0
2.700000 0.400000 0
2.800000 0.400000 0
2.900000 0.400000 0
3.000000 0.400000 0
3.100000 0.400000 0
3.200000 0.400000 0
3.300000 0.400000 0
3.400000 0.400000 0
3.500000 0.400000 0
3.600000 0.400000 0
3.700000 0.400000 0
3.800000 0.400000 0
3.900000 0.400000 0
4.000000 0.400000 0
4.100000 0.400000 0
4.200000 0.400000 0
4.300000 0.400000 0
4.400000 0.400000 0
4.500000 0.400000 0
4.600000 0.400000 0
4.700000 0.400000 0
4.800000 0.400000 0
4.900000 0.400000 0
5.000000 0.400000 0
5.100000 0.400000 0
5.200000 0.400000 0
5.300000 0.400000 0
5.400000 0.400000 0
5.500000 0.400000 0
5.600000 0.400000 0
5.700000 0.400000 0
5.800000 0.400000 0
5.900000 0.400000 0
6.000000 0.400000 0
6.100000 0.400000 0
6.200000 0.400000 0
6.300000 0.400000 0
6.400000 0.400000 0
6.500000 0.400000 0
6.600000 0.400000 0
6.700000 0.400000 0
6.800000 0.400000 0
6.900000 0.400000 0
7.000000 0.400000 0
7.100000 0.400000 0
7.200000 0.400000 0
7.300000 0.400000 0
7.400000 0.400000 0
7.500000 0.400000 0
7.600000 0.400000 0
7.700000 0.400000 0
7.800000 0.400000 0
7.900000 0.400000 0
8.000000 0.400000 0
8.100000 0.400000 0
8.200000 0.400000 0
8.300000 0.400000 0
8.400000 0.400000 0
8.500000 0.400000 0
8.600000 0.400000 0
[...]
POINT_DATA 2121 

VECTORS velocity float
0.500000 0.000000 0
-0.000000 0.000000 0
-0.000003 0.000000 0
-0.000006 0.000000 0
-0.000006 0.000000 0
0.000000 0.000000 0
0.000015 0.000000 0
0.000042 0.000000 0
0.000086 0.000000 0
0.000148 0.000000 0
0.000228 0.000000 0
0.000322 0.000000 0
0.000421 0.000000 0
0.000508 0.000000 0
0.000565 0.000000 0
0.000569 0.000000 0
0.000502 0.000000 0
0.000347 0.000000 0
0.000097 0.000000 0
-0.000248 0.000000 0
-0.000675 0.000000 0
-0.001161 0.000000 0
-0.001665 0.000000 0
-0.002125 0.000000 0
-0.002446 0.000000 0
-0.002527 0.000000 0
-0.002304 0.000000 0
-0.001780 0.000000 0
-0.001037 0.000000 0
-0.000166 0.000000 0
0.000728 0.000000 0
0.001564 0.000000 0
0.002281 0.000000 0
0.002845 0.000000 0
0.003237 0.000000 0
0.003449 0.000000 0
0.003476 0.000000 0
0.003319 0.000000 0
0.002974 0.000000 0
0.002441 0.000000 0
0.001714 0.000000 0
0.000781 0.000000 0
-0.000367 0.000000 0
-0.001666 0.000000 0
-0.003006 0.000000 0
-0.004282 0.000000 0
-0.005353 0.000000 0
-0.006061 0.000000 0
-0.006252 0.000000 0
-0.005815 0.000000 0
-0.004741 0.000000 0
-0.003161 0.000000 0
-0.001351 0.000000 0
0.000407 0.000000 0
0.002001 0.000000 0
0.003350 0.000000 0
0.004394 0.000000 0
0.005103 0.000000 0
0.005474 0.000000 0
0.005525 0.000000 0
0.005284 0.000000 0
0.004779 0.000000 0
0.004036 0.000000 0
0.003080 0.000000 0
0.001945 0.000000 0
0.000687 0.000000 0
-0.000577 0.000000 0
-0.001713 0.000000 0
-0.002712 0.000000 0
-0.003590 0.000000 0
-0.004362 0.000000 0
-0.005026 0.000000 0
-0.005548 0.000000 0
-0.005860 0.000000 0
-0.005856 0.000000 0
-0.005428 0.000000 0
-0.004504 0.000000 0
-0.003113 0.000000 0
-0.001427 0.000000 0
0.000314 0.000000 0
0.001993 0.000000 0
0.003510 0.000000 0
0.004754 0.000000 0
0.005623 0.000000 0
0.006036 0.000000 0
0.005951 0.000000 0
0.005378 0.000000 0
0.004395 0.000000 0
0.003137 0.000000 0
0.001771 0.000000 0
0.000458 0.000000 0
-0.000664 0.000000 0
-0.001509 0.000000 0
-0.002144 0.000000 0
-0.002653 0.000000 0
-0.003102 0.000000 0
-0.003527 0.000000 0
-0.003938 0.000000 0
-0.004322 0.000000 0
-0.004655 0.000000 0
-0.004990 0.000000 0
1.000000 0.000002 0
1.002381 -0.005051 0
1.010630 -0.010803 0
1.024954 -0.017000 0
1.045765 -0.023438 0
1.073299 -0.029727 0
1.107297 -0.035174 0
1.146587 -0.038826 0
1.188776 -0.039705 0
1.230127 -0.037421 0
1.267167 -0.032485 0
1.297656 -0.025866 0
1.320543 -0.018494 0
1.335619 -0.011097 0
1.343249 -0.004224 0
1.344245 0.001701 0
1.339763 0.006372 0
1.331220 0.009577 0
1.320219 0.011192 0
1.308443 0.011203 0
1.297534 0.009720 0
1.288958 0.006977 0
1.283885 0.003342 0
1.283049 -0.000635 0
1.286526 -0.004176 0
1.293475 -0.006404 0
1.302075 -0.006642 0
1.309865 -0.004685 0
1.314410 -0.000857 0
1.313945 0.004214 0
1.307601 0.009821 0
1.295288 0.015321 0
1.277497 0.020229 0
1.255098 0.024226 0
1.229176 0.027127 0
1.200921 0.028837 0
1.171573 0.029310 0
1.142388 0.028525 0
1.114633 0.026472 0
1.089572 0.023135 0
1.068458 0.018474 0
1.052510 0.012413 0
1.042885 0.004933 0
1.040612 -0.003616 0
1.046511 -0.012554 0
1.060966 -0.021129 0
1.083633 -0.028476 0
1.113237 -0.033630 0
1.147548 -0.035684 0
1.183468 -0.033997 0
1.217254 -0.028462 0
1.244995 -0.019755 0
1.263398 -0.009321 0
1.270648 0.001283 0
1.266810 0.011102 0
1.253077 0.019615 0
1.231134 0.026433 0
1.202953 0.031327 0
1.170620 0.034226 0
1.136194 0.035171 0
1.101618 0.034269 0
1.068673 0.031649 0
1.038950 0.027436 0
1.013809 0.021767 0
0.994308 0.014848 0
0.981112 0.007061 0
0.974442 -0.000858 0
0.974170 -0.008135 0
0.979881 -0.014461 0
0.991049 -0.019870 0
1.007148 -0.024447 0
1.027701 -0.028216 0
1.052218 -0.031049 0
1.080027 -0.032614 0
1.110041 -0.032400 0
1.140584 -0.029844 0
1.169374 -0.024573 0
1.193703 -0.016719 0
1.210820 -0.007122 0
1.218516 0.003023 0
1.215908 0.012851 0
1.203518 0.021800 0
1.182524 0.029278 0
1.154677 0.034712 0
1.122200 0.037621 0
1.087622 0.037710 0
1.053557 0.034974 0
1.022398 0.029768 0
0.996002 0.022808 0
0.975436 0.015047 0
0.960909 0.007481 0
0.951924 0.000992 0
0.947608 -0.003910 0
0.947018 -0.007322 0
0.949319 -0.009675 0
0.953921 -0.011323 0
0.960434 -0.012448 0
0.968524 -0.013037 0
0.977738 -0.012902 0
0.987354 -0.011089 0
0.995522 -0.009893 0
1.000000 0.000004 0
1.002716 -0.011126 0
1.011390 -0.022886 0
1.026222 -0.035447 0
1.047867 -0.048657 0
1.077009 -0.061845 0
1.113952 -0.073601 0
1.157929 -0.081791 0
1.206506 -0.083852 0
1.253743 -0.078703 0
1.294844 -0.067841 0
1.327608 -0.053688 0
1.351512 -0.038276 0
1.366757 -0.023018 0
1.373935 -0.008939 0
1.374028 0.003173 0
1.368298 0.012713 0
1.358270 0.019233 0
1.345691 0.022465 0
1.332412 0.022372 0
1.320248 0.019173 0
1.310828 0.013337 0
1.305509 0.005596 0
1.305313 -0.002954 0
1.310647 -0.010738 0
1.320766 -0.015861 0
1.333483 -0.016702 0
1.345528 -0.012647 0
1.353596 -0.004393 0
1.355530 0.006496 0
1.350593 0.018345 0
1.338964 0.029792 0
1.321411 0.039877 0
1.299019 0.048008 0
1.273000 0.053864 0
1.244596 0.057291 0
1.215044 0.058221 0
1.185567 0.056627 0
1.157377 0.052504 0
1.131660 0.045863 0
1.109545 0.036749 0
1.092057 0.025260 0
1.080071 0.011586 0
1.074365 -0.003938 0
1.075816 -0.020667 0
1.085075 -0.037435 0
1.102217 -0.052584 0
1.126648 -0.064227 0
1.157176 -0.070543 0
1.191927 -0.070019 0
1.228101 -0.061840 0
1.261878 -0.046456 0
1.288828 -0.025965 0
1.305008 -0.003725 0
1.308713 0.017258 0
1.301074 0.035364 0
1.284019 0.049812 0
1.259747 0.060201 0
1.230510 0.066446 0
1.198469 0.068689 0
1.165598 0.067208 0
1.133616 0.062356 0
1.103946 0.054552 0
1.077664 0.044329 0
1.055458 0.032384 0
1.037627 0.019554 0
1.024185 0.006629 0
1.015168 -0.005752 0
1.010605 -0.017191 0
1.010457 -0.027580 0
1.014744 -0.036965 0
1.023657 -0.045383 0
1.037498 -0.052639 0
1.056408 -0.058135 0
1.080020 -0.060869 0
1.107254 -0.059646 0
1.136313 -0.053432 0
1.164786 -0.041759 0
1.189781 -0.025125 0
1.208188 -0.005401 0
1.217498 0.014685 0
1.217171 0.033072 0
1.208026 0.048528 0
1.191466 0.060012 0
1.169295 0.066743 0
1.143511 0.068330 0
1.116098 0.064911 0
1.088819 0.057242 0
1.063055 0.046649 0
1.039723 0.034780 0
1.019285 0.023200 0
1.001869 0.012988 0
0.987488 0.004593 0
0.976110 -0.002023 0
0.967620 -0.007215 0
0.961964 -0.011428 0
0.959209 -0.014916 0
0.959367 -0.017617 0
0.962214 -0.019143 0
0.967177 -0.018097 0
0.973347 -0.017411 0
1.000000 0.000005 0
1.002346 -0.016753 0
1.010232 -0.034438 0
1.024143 -0.053606 0
1.045244 -0.074354 0
1.075082 -0.095941 0
1.115207 -0.116224 0
1.166015 -0.131509 0
1.226162 -0.135649 0
1.282774 -0.125888 0
1.328596 -0.106479 0
1.362668 -0.082663 0
1.386073 -0.057773 0
1.399818 -0.033649 0
1.404677 -0.011624 0
1.401792 0.007208 0
1.392470 0.022000 0
1.378386 0.032055 0
1.361537 0.036921 0
1.344083 0.036517 0
1.328144 0.031175 0
1.315608 0.021586 0
1.308051 0.008728 0
1.306890 -0.005902 0
1.313264 -0.019758 0
1.326847 -0.029369 0
1.345053 -0.031533 0
1.363314 -0.024927 0
1.376577 -0.010988 0
1.381534 0.007087 0
1.377652 0.026258 0
1.365726 0.044375 0
1.347102 0.060044 0
1.323278 0.072507 0
1.295688 0.081421 0
1.265648 0.086665 0
1.234375 0.088210 0
1.203026 0.086062 0
1.172721 0.080250 0
1.144553 0.070837 0
1.119558 0.057947 0
1.098656 0.041759 0
1.082563 0.022497 0
1.071750 0.000510 0
1.066527 -0.023394 0
1.067271 -0.047660 0
1.074269 -0.070178 0
1.087864 -0.088718 0
1.108569 -0.101092 0
1.136553 -0.105051 0
1.170745 -0.098542 0
1.208272 -0.080612 0
1.244472 -0.052581 0
1.273615 -0.018731 0
1.290607 0.014907 0
1.294202 0.044179 0
1.286379 0.067631 0
1.269495 0.084708 0
1.245973 0.095374 0
1.218101 0.099953 0
1.187927 0.098993 0
1.157183 0.093172 0
1.127250 0.083259 0
1.099158 0.070126 0
1.073615 0.054756 0
1.051028 0.038205 0
1.031508 0.021472 0
1.014870 0.005316 0
1.000882 -0.009879 0
0.989619 -0.024138 0
0.981881 -0.037777 0
0.978990 -0.051100 0
0.982344 -0.063930 0
0.992791 -0.075265 0
1.010192 -0.083375 0
1.033447 -0.086267 0
1.060769 -0.082234 0
1.089968 -0.070316 0
1.118633 -0.050653 0
1.144182 -0.024822 0
1.163788 0.003739 0
1.175146 0.031141 0
1.178084 0.054854 0
1.173291 0.073314 0
1.161910 0.085446 0
1.145308 0.090777 0
1.124882 0.089537 0
1.101948 0.082682 0
1.077678 0.071775 0
1.053094 0.058688 0
1.029053 0.045206 0
1.006229 0.032659 0
0.985117 0.021719 0
0.966154 0.012416 0
0.949886 0.004342 0
0.936922 -0.003041 0
0.927812 -0.009980 0
0.922875 -0.016172 0
0.921944 -0.020842 0
0.924315 -0.022351 0
0.929141 -0.023254 0
1.000000 0.000008 0
1.001823 -0.021670 0
1.008256 -0.044813 0
1.020069 -0.070588 0
1.039048 -0.099725 0
1.068001 -0.131936 0
1.110737 -0.164663 0
1.170604 -0.192876 0
1.252072 -0.200740 0
1.320701 -0.181267 0
1.368087 -0.147864 0
1.399270 -0.111293 0
1.419164 -0.075554 0
1.429783 -0.041752 0
1.431364 -0.011042 0
1.424528 0.015251 0
1.410289 0.035990 0
1.390449 0.050037 0
1.367369 0.056638 0
1.343677 0.055635 0
1.321950 0.047519 0
1.304380 0.033301 0
1.292576 0.014184 0
1.287819 -0.008297 0
1.292186 -0.030824 0
1.306756 -0.047780 0
1.329630 -0.053299 0
1.355816 -0.044300 0
1.378108 -0.022741 0
1.389791 0.005292 0
1.389090 0.034024 0
1.378015 0.060213 0
1.358954 0.082196 0
1.334070 0.099293 0
1.305109 0.111364 0
1.273474 0.118474 0
1.240359 0.120714 0
1.206859 0.118153 0
1.174042 0.110847 0
1.142974 0.098896 0
1.114677 0.082518 0
1.089958 0.062127 0
1.069055 0.038363 0
1.051306 0.011968 0
1.035434 -0.016317 0
1.021013 -0.045306 0
1.009856 -0.073306 0
1.005000 -0.098656 0
1.009896 -0.119361 0
1.026734 -0.132324 0
1.055349 -0.133689 0
1.093304 -0.120312 0
1.136333 -0.091437 0
1.178673 -0.049989 0
1.213513 -0.003459 0
1.234905 0.039463 0
1.242662 0.074390 0
1.238948 0.100478 0
1.226138 0.117711 0
1.206575 0.126605 0
1.182407 0.127997 0
1.155507 0.122904 0
1.127415 0.112447 0
1.099322 0.097834 0
1.072029 0.080386 0
1.045878 0.061532 0
1.020737 0.042658 0
0.996234 0.024745 0
0.972345 0.007930 0
0.950038 -0.008708 0
0.931445 -0.026466 0
0.919441 -0.045976 0
0.916196 -0.066569 0
0.922234 -0.086112 0
0.936638 -0.101655 0
0.957706 -0.110353 0
0.983463 -0.110083 0
1.011920 -0.099751 0
1.041147 -0.079468 0
1.069255 -0.050685 0
1.094224 -0.016408 0
1.113463 0.018646 0
1.125406 0.050254 0
1.129982 0.076056 0
1.127655 0.094596 0
1.119200 0.105229 0
1.105535 0.108141 0
1.087618 0.104317 0
1.066402 0.095374 0
1.042807 0.083276 0
1.017709 0.069935 0
0.991993 0.056795 0
0.966652 0.044539 0
0.942890 0.033078 0
0.922064 0.021887 0
0.905427 0.010517 0
0.893763 -0.000998 0
0.887219 -0.011878 0
0.885329 -0.020712 0
0.887075 -0.025423 0
0.891169 -0.028121 0
1.000000 0.000010 0
1.000992 -0.025321 0
1.004947 -0.052814 0
1.012740 -0.084528 0
1.026582 -0.122415 0
1.050576 -0.167758 0
1.091815 -0.218956 0
1.160030 -0.272973 0
1.278272 -0.285875 0
1.352112 -0.242033 0
1.386237 -0.185177 0
1.403088 -0.133869 0
1.413389 -0.088415 0
1.419236 -0.045978 0
1.417928 -0.006498 0
1.407399 0.028154 0
1.388051 0.055950 0
1.361752 0.074846 0
1.331232 0.083564 0
1.299658 0.081806 0
1.270169 0.070342 0
1.245230 0.050831 0
1.226126 0.025160 0
1.213063 -0.005641 0
1.207085 -0.038824 0
1.212740 -0.066942 0
1.231656 -0.080722 0
1.261961 -0.073535 0
1.296965 -0.045092 0
1.325615 -0.004024 0
1.338200 0.037905 0
1.336187 0.074381 0
1.323823 0.103860 0
1.304145 0.126223 0
1.279203 0.141887 0
1.250438 0.151286 0
1.219007 0.154696 0
1.185969 0.152250 0
1.152375 0.144005 0
1.119297 0.130073 0
1.087733 0.110835 0
1.058237 0.087252 0
1.030153 0.061020 0
1.001185 0.034002 0
0.968805 0.006770 0
0.933361 -0.022211 0
0.900324 -0.054295 0
0.878567 -0.088888 0
0.873381 -0.122956 0
0.885059 -0.150634 0
0.911304 -0.165241 0
0.948947 -0.161725 0
0.994402 -0.138079 0
1.043521 -0.096040 0
1.091201 -0.041454 0
1.130628 0.014901 0
1.156502 0.063458 0
1.169462 0.101102 0
1.171273 0.127618 0
1.163937 0.143555 0
1.149459 0.149932 0
1.129688 0.148035 0
1.106208 0.139314 0
1.080199 0.125382 0
1.052289 0.108071 0
1.022498 0.089368 0
0.990589 0.070987 0
0.956936 0.053578 0
0.923441 0.036188 0
0.893546 0.016633 0
0.870924 -0.007310 0
0.858092 -0.035980 0
0.855699 -0.066852 0
0.862590 -0.095837 0
0.876878 -0.118976 0
0.896704 -0.133221 0
0.920460 -0.136577 0
0.946715 -0.128130 0
0.974123 -0.108119 0
1.001363 -0.078028 0
1.027073 -0.040598 0
1.049586 -0.000171 0
1.066632 0.038206 0
1.077341 0.070936 0
1.081549 0.096098 0
1.079472 0.112768 0
1.071555 0.120990 0
1.058355 0.121685 0
1.040502 0.116457 0
1.018699 0.107251 0
0.993821 0.095890 0
0.967066 0.083587 0
0.940063 0.070693 0
0.914770 0.056875 0
0.893110 0.041675 0
0.876501 0.025131 0
0.865525 0.008099 0
0.859860 -0.007868 0
0.858589 -0.020828 0
0.860497 -0.028319 0
0.864120 -0.032441 0
1.000000 0.000012 0
0.999801 -0.026929 0
1.000068 -0.056689 0
1.001372 -0.092352 0
1.005587 -0.137690 0
1.017032 -0.197299 0
1.045463 -0.274246 0
1.110722 -0.379463 0
1.277992 -0.392951 0
1.325935 -0.289360 0
1.313438 -0.198970 0
1.297720 -0.138575 0
1.290320 -0.091831 0
1.291600 -0.046420 0
1.291635 0.000665 0
1.281269 0.044998 0
1.260210 0.081507 0
1.230049 0.106726 0
1.193443 0.118603 0
1.153807 0.116570 0
1.114778 0.101818 0
1.078729 0.077214 0
1.045669 0.046222 0
1.014931 0.010616 0
0.987489 -0.030630 0
0.970984 -0.072481 0
0.976821 -0.102649 0
1.007124 -0.109737 0
1.056146 -0.086525 0
1.112389 -0.036073 0
1.159876 0.023323 0
1.187267 0.074460 0
1.198651 0.114108 0
1.198654 0.143784 0
1.189784 0.164943 0
1.173659 0.178540 0
1.151579 0.185054 0
1.124742 0.184655 0
1.094237 0.177390 0
1.060783 0.163409 0
1.024150 0.143448 0
0.982725 0.119577 0
0.934558 0.095286 0
0.880404 0.073187 0
0.826037 0.051377 0
0.780253 0.023045 0
0.750092 -0.018642 0
0.738289 -0.071843 0
0.742861 -0.125982 0
0.760268 -0.170376 0
0.787814 -0.197706 0
0.823825 -0.203540 0
0.866805 -0.186140 0
0.914715 -0.146918 0
0.964673 -0.090696 0
1.012612 -0.025967 0
1.051801 0.035426 0
1.078839 0.085578 0
1.094298 0.123107 0
1.099357 0.148290 0
1.095460 0.162117 0
1.084061 0.166026 0
1.066395 0.161807 0
1.043251 0.151623 0
1.014887 0.137957 0
0.981369 0.123102 0
0.943522 0.108091 0
0.903982 0.091763 0
0.867261 0.071191 0
0.838292 0.043680 0
0.820308 0.008858 0
0.813486 -0.030880 0
0.815832 -0.071196 0
0.824879 -0.107420 0
0.838714 -0.135898 0
0.856114 -0.154064 0
0.876301 -0.160223 0
0.898624 -0.153544 0
0.922346 -0.134246 0
0.946579 -0.103764 0
0.970319 -0.064760 0
0.992445 -0.021042 0
1.011189 0.022369 0
1.024992 0.061009 0
1.033177 0.092336 0
1.035478 0.115093 0
1.031886 0.129129 0
1.022567 0.135240 0
1.007858 0.134900 0
0.988359 0.129827 0
0.965106 0.121439 0
0.939704 0.110424 0
0.914259 0.096705 0
0.891016 0.079902 0
0.871829 0.060027 0
0.857745 0.037972 0
0.848899 0.015514 0
0.844704 -0.005072 0
0.844126 -0.021479 0
0.846030 -0.031083 0
0.849170 -0.036239 0
1.000000 0.000015 0
0.998351 -0.025702 0
0.994008 -0.054514 0
0.986669 -0.090175 0
0.976506 -0.138204 0
0.965076 -0.207764 0
0.958817 -0.312776 0
0.979985 -0.505631 0
1.141166 -0.501216 0
1.125466 -0.277607 0
1.019151 -0.157092 0
0.959861 -0.110880 0
0.930557 -0.082425 0
0.932463 -0.047422 0
0.948308 0.003704 0
0.951253 0.059450 0
0.940149 0.107041 0
0.914826 0.141484 0
0.874987 0.159677 0
0.821097 0.160341 0
0.755763 0.145291 0
0.685740 0.119811 0
0.622445 0.088828 0
0.577956 0.052409 0
0.559467 0.004994 0
0.566332 -0.056404 0
0.595582 -0.116991 0
0.644701 -0.152989 0
0.710796 -0.150486 0
0.789648 -0.107884 0
0.872834 -0.037102 0
0.943810 0.035477 0
0.992421 0.092343 0
1.023084 0.134961 0
1.039546 0.166753 0
1.043701 0.189361 0
1.036989 0.203484 0
1.020557 0.209462 0
0.995001 0.207834 0
0.959906 0.200031 0
0.913834 0.188763 0
0.855916 0.176714 0
0.789323 0.163211 0
0.723707 0.142393 0
0.672271 0.106792 0
0.644370 0.053605 0
0.640176 -0.012460 0
0.650957 -0.081786 0
0.668498 -0.145063 0
0.689374 -0.195716 0
0.713531 -0.228928 0
0.742328 -0.240845 0
0.776956 -0.229098 0
0.817374 -0.194038 0
0.862050 -0.139481 0
0.908303 -0.072356 0
0.952001 -0.002898 0
0.987047 0.058476 0
1.011775 0.106971 0
1.026244 0.142263 0
1.031035 0.165098 0
1.026877 0.176971 0
1.014371 0.179994 0
0.993862 0.176760 0
0.965715 0.169824 0
0.931125 0.160604 0
0.893057 0.148244 0
0.856307 0.129709 0
0.826071 0.101748 0
0.805838 0.063457 0
0.796284 0.017367 0
0.795752 -0.031633 0
0.801346 -0.078375 0
0.810662 -0.118848 0
0.822294 -0.150340 0
0.835675 -0.170938 0
0.850753 -0.179217 0
0.867605 -0.174304 0
0.886122 -0.156203 0
0.905848 -0.126131 0
0.926023 -0.086593 0
0.945694 -0.041170 0
0.963670 0.005530 0
0.978201 0.048818 0
0.988229 0.085483 0
0.993107 0.113930 0
0.992467 0.133771 0
0.986193 0.145583 0
0.974479 0.150535 0
0.957984 0.149874 0
0.937973 0.144417 0
0.916304 0.134304 0
0.895142 0.119251 0
0.876468 0.099176 0
0.861628 0.074817 0
0.851145 0.047932 0
0.844833 0.021011 0
0.842057 -0.003224 0
0.841958 -0.022283 0
0.843658 -0.033493 0
0.846291 -0.039442 0
1.000000 0.000017 0
0.996936 -0.021249 0
0.988022 -0.045137 0
0.971732 -0.074980 0
0.945427 -0.116227 0
0.904368 -0.179739 0
0.839925 -0.289284 0
0.737061 -0.561941 0
0.552762 -0.538561 0
-0.000391 -0.167475 0
0.398089 -0.033495 0
0.324336 -0.050110 0
0.328144 -0.064562 0
0.369886 -0.064300 0
0.422984 -0.018253 0
0.459796 0.053028 0
0.472103 0.117804 0
0.462037 0.171760 0
0.427953 0.212203 0
0.371096 0.235664 0
0.299411 0.237046 0
0.229489 0.210403 0
0.182866 0.153876 0
0.172868 0.073464 0
0.199289 -0.019135 0
0.248259 -0.108725 0
0.304874 -0.181147 0
0.365461 -0.225080 0
0.432760 -0.231601 0
0.510097 -0.198240 0
0.597768 -0.130969 0
0.689401 -0.045256 0
0.768189 0.034705 0
0.825407 0.096529 0
0.864243 0.144197 0
0.886701 0.180968 0
0.893824 0.208068 0
0.886109 0.226514 0
0.863486 0.237912 0
0.825771 0.244447 0
0.774425 0.247309 0
0.715276 0.243959 0
0.659391 0.227366 0
0.619035 0.190109 0
0.601050 0.130585 0
0.603916 0.055011 0
0.620192 -0.025358 0
0.640541 -0.100294 0
0.659567 -0.164528 0
0.675821 -0.215537 0
0.690584 -0.250790 0
0.706793 -0.267095 0
0.727730 -0.261315 0
0.755478 -0.232140 0
0.789931 -0.181754 0
0.828991 -0.116048 0
0.869463 -0.043447 0
0.906342 0.025674 0
0.935280 0.083781 0
0.955106 0.128902 0
0.965456 0.161355 0
0.966288 0.182560 0
0.957675 0.194693 0
0.939963 0.200150 0
0.914351 0.200565 0
0.883633 0.195631 0
0.852318 0.182779 0
0.825489 0.158619 0
0.806855 0.121531 0
0.797492 0.073338 0
0.796142 0.018815 0
0.800453 -0.036072 0
0.807859 -0.086236 0
0.816476 -0.128496 0
0.825277 -0.161040 0
0.834041 -0.182653 0
0.843188 -0.192282 0
0.853448 -0.189043 0
0.865436 -0.172618 0
0.879291 -0.143794 0
0.894593 -0.104736 0
0.910513 -0.058819 0
0.926002 -0.010266 0
0.939534 0.036321 0
0.949778 0.077301 0
0.955825 0.110727 0
0.957092 0.135913 0
0.953325 0.153098 0
0.944717 0.162980 0
0.932036 0.166205 0
0.916661 0.162990 0
0.900402 0.153126 0
0.885097 0.136411 0
0.872173 0.113286 0
0.862393 0.085220 0
0.855872 0.054638 0
0.852279 0.024473 0
0.851054 -0.002326 0
0.851539 -0.023210 0
0.853113 -0.035546 0
0.855288 -0.042060 0
1.000000 0.000018 0
0.995960 -0.014037 0
0.983889 -0.029439 0
0.961405 -0.047709 0
0.923894 -0.070969 0
0.862089 -0.102391 0
0.756183 -0.145598 0
0.562789 -0.218598 0
0.073140 0.000032 0
-0.531779 0.134262 0
0.000000 0.000079 0
-0.033036 -0.052439 0
-0.058296 -0.128104 0
-0.027594 -0.142391 0
-0.004003 -0.086336 0
0.032696 0.010201 0
0.062005 0.104670 0
0.072675 0.185505 0
0.061925 0.250489 0
0.035231 0.288755 0
0.006446 0.286768 0
-0.001061 0.236226 0
0.022023 0.145320 0
0.068501 0.035857 0
0.122120 -0.070527 0
0.171639 -0.162117 0
0.214672 -0.234323 0
0.253780 -0.281004 0
0.295420 -0.295251 0
0.346730 -0.273022 0
0.411776 -0.216536 0
0.489472 -0.135073 0
0.571751 -0.043792 0
0.642320 0.038778 0
0.693786 0.105329 0
0.727188 0.159651 0
0.742911 0.203947 0
0.741105 0.239671 0
0.722495 0.268043 0
0.689840 0.288964 0
0.649679 0.299129 0
0.612470 0.291619 0
0.589142 0.259323 0
0.585661 0.200604 0
0.600502 0.121782 0
0.627029 0.034334 0
0.656048 -0.049215 0
0.680900 -0.121291 0
0.698876 -0.180473 0
0.709397 -0.226862 0
0.713848 -0.260029 0
0.715591 -0.278120 0
0.719359 -0.277912 0
0.729672 -0.256368 0
0.748862 -0.213123 0
0.776167 -0.152018 0
0.808497 -0.080379 0
0.841716 -0.007470 0
0.870410 0.058078 0
0.891835 0.111958 0
0.904757 0.153787 0
0.908576 0.184622 0
0.903226 0.206190 0
0.889519 0.219955 0
0.869663 0.226025 0