# vtk DataFile Version 2.0
generated by CFD-lab course output (written by Tobias Neckel) 
ASCII

DATASET STRUCTURED_GRID
DIMENSIONS  101 21 1 
POINTS 2121 float

0.000000 0.000000 0
0.100000 0.000000 0
0.200000 0.000000 0
0.300000 0.000000 0
0.400000 0.000000 0
0.500000 0.000000 0
0.600000 0.000000 0
0.700000 0.000000 0
0.800000 0.000000 0
0.900000 0.000000 0
1.000000 0.000000 0
1.100000 0.000000 0
1.200000 0.000000 0
1.300000 0.000000 0
1.400000 0.000000 0
1.500000 0.000000 0
1.600000 0.000000 0
1.700000 0.000000 0
1.800000 0.000000 0
1.900000 0.000000 0
2.000000 0.000000 0
2.100000 0.000000 0
2.200000 0.000000 0
2.300000 0.000000 0
2.400000 0.000000 0
2.500000 0.000000 0
2.600000 0.000000 0
2.700000 0.000000 0
2.800000 0.000000 0
2.900000 0.000000 0
3.000000 0.000000 0
3.100000 0.000000 0
3.200000 0.000000 0
3.300000 0.000000 0
3.400000 0.000000 0
3.500000 0.000000 0
3.600000 0.000000 0
3.700000 0.000000 0
3.800000 0.000000 0
3.900000 0.000000 0
4.000000 0.000000 0
4.100000 0.000000 0
4.200000 0.000000 0
4.300000 0.000000 0
4.400000 0.000000 0
4.500000 0.000000 0
4.600000 0.000000 0
4.700000 0.000000 0
4.800000 0.000000 0
4.900000 0.000000 0
5.000000 0.000000 0
5.100000 0.000000 0
5.200000 0.000000 0
5.300000 0.000000 0
5.400000 0.000000 0
5.500000 0.000000 0
5.600000 0.000000 0
5.700000 0.000000 0
5.800000 0.000000 0
5.900000 0.000000 0
6.000000 0.000000 0
6.100000 0.000000 0
6.200000 0.000000 0
6.300000 0.000000 0
6.400000 0.000000 0
6.500000 0.000000 0
6.600000 0.000000 0
6.700000 0.000000 0
6.800000 0.000000 0
6.900000 0.000000 0
7.000000 0.000000 0
7.100000 0.000000 0
7.200000 0.000000 0
7.300000 0.000000 0
7.400000 0.000000 0
7.500000 0.000000 0
7.600000 0.000000 0
7.700000 0.000000 0
7.800000 0.000000 0
7.900000 0.000000 0
8.000000 0.000000 0
8.100000 0.000000 0
8.200000 0.000000 0
8.300000 0.000000 0
8.400000 0.000000 0
8.500000 0.000000 0
8.600000 0.000000 0
8.700000 0.000000 0
8.800000 0.000000 0
8.900000 0.000000 0
9.000000 0.000000 0
9.100000 0.000000 0
9.200000 0.000000 0
9.300000 0.000000 0
9.400000 0.000000 0
9.500000 0.000000 0
9.600000 0.000000 0
9.700000 0.000000 0
9.800000 0.000000 0
9.900000 0.000000 0
10.000000 0.000000 0
0.000000 0.100000 0
0.100000 0.100000 0
0.200000 0.100000 0
0.300000 0.100000 0
0.400000 0.100000 0
0.500000 0.100000 0
0.600000 0.100000 0
0.700000 0.100000 0
0.800000 0.100000 0
0.900000 0.100000 0
1.000000 0.100000 0
1.100000 0.100000 0
1.200000 0.100000 0
1.300000 0.100000 0
1.400000 0.100000 0
1.500000 0.100000 0
1.600000 0.100000 0
1.700000 0.100000 0
1.800000 0.100000 0
1.900000 0.100000 0
2.000000 0.100000 0
2.100000 0.100000 0
2.200000 0.100000 0
2.300000 0.100000 0
2.400000 0.100000 0
2.500000 0.100000 0
2.600000 0.100000 0
2.700000 0.100000 0
2.800000 0.100000 0
2.900000 0.100000 0
3.000000 0.100000 0
3.100000 0.100000 0
3.200000 0.100000 0
3.300000 0.100000 0
3.400000 0.100000 0
3.500000 0.100000 0
3.600000 0.100000 0
3.700000 0.100000 0
3.800000 0.100000 0
3.900000 0.100000 0
4.000000 0.100000 0
4.100000 0.100000 0
4.200000 0.100000 0
4.300000 0.100000 0
4.400000 0.100000 0
4.500000 0.100000 0
4.600000 0.100000 0
4.700000 0.100000 0
4.800000 0.100000 0
4.900000 0.100000 0
5.000000 0.100000 0
5.100000 0.100000 0
5.200000 0.100000 0
5.300000 0.100000 0
5.400000 0.100000 0
5.500000 0.100000 0
5.600000 0.100000 0
5.700000 0.100000 0
5.800000 0.100000 0
5.900000 0.100000 0
6.000000 0.100000 0
6.100000 0.100000 0
6.200000 0.100000 0
6.300000 0.100000 0
6.400000 0.100000 0
6.500000 0.100000 0
6.600000 0.100000 0
6.700000 0.100000 0
6.800000 0.100000 0
6.900000 0.100000 0
7.000000 0.100000 0
7.100000 0.100000 0
7.200000 0.100000 0
7.300000 0.100000 0
7.400000 0.100000 0
7.500000 0.100000 0
7.600000 0.100000 0
7.700000 0.100000 0
7.800000 0.100000 0
7.900000 0.100000 0
8.000000 0.100000 0
8.100000 0.100000 0
8.200000 0.100000 0
8.300000 0.100000 0
8.400000 0.100000 0
8.500000 0.100000 0
8.600000 0.100000 0
8.700000 0.100000 0
8.800000 0.100000 0
8.900000 0.100000 0
9.000000 0.100000 0
9.100000 0.100000 0
9.200000 0.100000 0
9.300000 0.100000 0
9.400000 0.100000 0
9.500000 0.100000 0
9.600000 0.100000 0
9.700000 0.100000 0
9.800000 0.100000 0
9.900000 0.100000 0
10.000000 0.100000 0
0.000000 0.200000 0
0.100000 0.200000 0
0.200000 0.200000 0
0.300000 0.200000 0
0.400000 0.200000 0
0.500000 0.200000 0
0.600000 0.200000 0
0.700000 0.200000 0
0.800000 0.200000 0
0.900000 0.200000 0
1.000000 0.200000 0
1.100000 0.200000 0
1.200000 0.200000 0
1.300000 0.200000 0
1.400000 0.200000 0
1.500000 0.200000 0
1.600000 0.200000 0
1.700000 0.200000 0
1.800000 0.200000 0
1.900000 0.200000 0
2.000000 0.200000 0
2.100000 0.200000 0
2.200000 0.200000 0
2.300000 0.200000 0
2.400000 0.200000 0
2.500000 0.200000 0
2.600000 0.200000 0
2.700000 0.200000 0
2.800000 0.200000 0
2.900000 0.200000 0
3.000000 0.200000 0
3.100000 0.200000 0
3.200000 0.200000 0
3.300000 0.200000 0
3.400000 0.200000 0
3.500000 0.200000 0
3.600000 0.200000 0
3.700000 0.200000 0
3.800000 0.200000 0
3.900000 0.200000 0
4.000000 0.200000 0
4.100000 0.200000 0
4.200000 0.200000 0
4.300000 0.200000 0
4.400000 0.200000 0
4.500000 0.200000 0
4.600000 0.200000 0
4.700000 0.200000 0
4.800000 0.200000 0
4.900000 0.200000 0
5.000000 0.200000 0
5.100000 0.200000 0
5.200000 0.200000 0
5.300000 0.200000 0
5.400000 0.200000 0
5.500000 0.200000 0
5.600000 0.200000 0
5.700000 0.200000 0
5.800000 0.200000 0
5.900000 0.200000 0
6.000000 0.200000 0
6.100000 0.200000 0
6.200000 0.200000 0
6.300000 0.200000 0
6.400000 0.200000 0
6.500000 0.200000 0
6.600000 0.200000 0
6.700000 0.200000 0
6.800000 0.200000 0
6.900000 0.200000 0
7.000000 0.200000 0
7.100000 0.200000 0
7.200000 0.200000 0
7.300000 0.200000 0
7.400000 0.200000 0
7.500000 0.200000 0
7.600000 0.200000 0
7.700000 0.200000 0
7.800000 0.200000 0
7.900000 0.200000 0
8.000000 0.200000 0
8.100000 0.200000 0
8.200000 0.200000 0
8.300000 0.200000 0
8.400000 0.200000 0
8.500000 0.200000 0
8.600000 0.200000 0
8.700000 0.200000 0
8.800000 0.200000 0
8.900000 0.200000 0
9.000000 0.200000 0
9.100000 0.200000 0
9.200000 0.200000 0
9.300000 0.200000 0
9.400000 0.200000 0
9.500000 0.200000 0
9.600000 0.200000 0
9.700000 0.200000 0
9.800000 0.200000 0
9.900000 0.200000 0
10.000000 0.200000 0
0.000000 0.300000 0
0.100000 0.300000 0
0.200000 0.300000 0
0.300000 0.300000 0
0.400000 0.300000 0
0.500000 0.300000 0
0.600000 0.300000 0
0.700000 0.300000 0
0.800000 0.300000 0
0.900000 0.300000 0
1.000000 0.300000 0
1.100000 0.300000 0
1.200000 0.300000 0
1.300000 0.300000 0
1.400000 0.300000 0
1.500000 0.300000 0
1.600000 0.300000 0
1.700000 0.300000 0
1.800000 0.300000 0
1.900000 0.300000 0
2.000000 0.300000 0
2.100000 0.300000 0
2.200000 0.300000 0
2.300000 0.300000 0
2.400000 0.300000 0
2.500000 0.300000 0
2.600000 0.300000 0
2.700000 0.300000 0
2.800000 0.300000 0
2.900000 0.300000 0
3.000000 0.300000 0
3.100000 0.300000 0
3.200000 0.300000 0
3.300000 0.300000 0
3.400000 0.300000 0
3.500000 0.300000 0
3.600000 0.300000 0
3.700000 0.300000 0
3.800000 0.300000 0
3.900000 0.300000 0
4.000000 0.300000 0
4.100000 0.300000 0
4.200000 0.300000 0
4.300000 0.300000 0
4.400000 0.300000 0
4.500000 0.300000 0
4.600000 0.300000 0
4.700000 0.300000 0
4.800000 0.300000 0
4.900000 0.300000 0
5.000000 0.300000 0
5.100000 0.300000 0
5.200000 0.300000 0
5.300000 0.300000 0
5.400000 0.300000 0
5.500000 0.300000 0
5.600000 0.300000 0
5.700000 0.300000 0
5.800000 0.300000 0
5.900000 0.300000 0
6.000000 0.300000 0
6.100000 0.300000 0
6.200000 0.300000 0
6.300000 0.300000 0
6.400000 0.300000 0
6.500000 0.300000 0
6.600000 0.300000 0
6.700000 0.300000 0
6.800000 0.300000 0
6.900000 0.300000 0
7.000000 0.300000 0
7.100000 0.300000 0
7.200000 0.300000 0
7.300000 0.300000 0
7.400000 0.300000 0
7.500000 0.300000 0
7.600000 0.300000 0
7.700000 0.300000 0
7.800000 0.300000 0
7.900000 0.300000 0
8.000000 0.300000 0
8.100000 0.300000 0
8.200000 0.300000 0
8.300000 0.300000 0
8.400000 0.300000 0
8.500000 0.300000 0
8.600000 0.300000 0
8.700000 0.300000 0
8.800000 0.300000 0
8.900000 0.300000 0
9.000000 0.300000 0
9.100000 0.300000 0
9.200000 0.300000 0
9.300000 0.300000 0
9.400000 0.300000 0
9.500000 0.300000 0
9.600000 0.300000 0
9.700000 0.300000 0
9.800000 0.300000 0
9.900000 0.300000 0
10.000000 0.300000 0
0.000000 0.400000 0
0.100000 0.400000 0
0.200000 0.400000 0
0.300000 0.400000 0
0.400000 0.400000 0
0.500000 0.400000 0
0.600000 0.400000 0
0.700000 0.400000 0
0.800000 0.400000 0
0.900000 0.400000 0
1.000000 0.400000 0
1.100000 0.400000 0
1.200000 0.400000 0
1.300000 0.400000 0
1.400000 0.400000 0
1.500000 0.400000 0
1.600000 0.400000 0
1.700000 0.400000 0
1.800000 0.400000 0
1.900000 0.400000 0
2.000000 0.400000 0
2.100000 0.400000 0
2.200000 0.400000 0
2.300000 0.400000 0
2.400000 0.400000 0
2.500000 0.400000 0
2.600000 0.400000 0
2.700000 0.400000 0
2.800000 0.400000 0
2.900000 0.400000 0
3.000000 0.400000 0
3.100000 0.400000 0
3.200000 0.400000 0
3.300000 0.400000 0
3.400000 0.400000 0
3.500000 0.400000 0
3.600000 0.400000 0
3.700000 0.400000 0
3.800000 0.400000 0
3.900000 0.400000 0
4.000000 0.400000 0
4.100000 0.400000 0
4.200000 0.400000 0
4.300000 0.400000 0
4.400000 0.400000 0
4.500000 0.400000 0
4.600000 0.400000 0
4.700000 0.400000 0
4.800000 0.400000 0
4.900000 0.400000 0
5.000000 0.400000 0
5.100000 0.400000 0
5.200000 0.400000 0
5.300000 0.400000 0
5.400000 0.400000 0
5.500000 0.400000 0
5.600000 0.400000 0
5.700000 0.400000 0
5.800000 0.400000 0
5.900000 0.400000 0
6.000000 0.400000 0
6.100000 0.400000 0
6.200000 0.400000 0
6.300000 0.400000 0
6.400000 0.400000 0
6.500000 0.400000 0
6.600000 0.400000 0
6.700000 0.400000 0
6.800000 0.400000 0
6.900000 0.400000 0
7.000000 0.400000 0
7.100000 0.400000 0
7.200000 0.400000 0
7.300000 0.400000 0
7.400000 0.400000 0
7.500000 0.400000 0
7.600000 0.400000 0
7.700000 0.400000 0
7.800000 0.400000 0
7.900000 0.400000 0
8.000000 0.400000 0
8.100000 0.400000 0
8.200000 0.400000 0
8.300000 0.400000 0
8.400000 0.400000 0
8.500000 0.400000 0
8.600000 0.400000 0
[...]
POINT_DATA 2121 

VECTORS velocity float
0.500000 0.000000 0
-0.000003 0.000000 0
-0.000008 0.000000 0
-0.000014 0.000000 0
-0.000018 0.000000 0
-0.000018 0.000000 0
-0.000011 0.000000 0
0.000009 0.000000 0
0.000045 0.000000 0
0.000101 0.000000 0
0.000180 0.000000 0
0.000279 0.000000 0
0.000392 0.000000 0
0.000505 0.000000 0
0.000599 0.000000 0
0.000652 0.000000 0
0.000641 0.000000 0
0.000548 0.000000 0
0.000360 0.000000 0
0.000070 0.000000 0
-0.000315 0.000000 0
-0.000780 0.000000 0
-0.001294 0.000000 0
-0.001811 0.000000 0
-0.002264 0.000000 0
-0.002547 0.000000 0
-0.002565 0.000000 0
-0.002265 0.000000 0
-0.001675 0.000000 0
-0.000887 0.000000 0
0.000004 0.000000 0
0.000901 0.000000 0
0.001723 0.000000 0
0.002417 0.000000 0
0.002951 0.000000 0
0.003311 0.000000 0
0.003490 0.000000 0
0.003484 0.000000 0
0.003294 0.000000 0
0.002917 0.000000 0
0.002352 0.000000 0
0.001591 0.000000 0
0.000620 0.000000 0
-0.000566 0.000000 0
-0.001875 0.000000 0
-0.003191 0.000000 0
-0.004409 0.000000 0
-0.005395 0.000000 0
-0.005999 0.000000 0
-0.006079 0.000000 0
-0.005542 0.000000 0
-0.004394 0.000000 0
-0.002788 0.000000 0
-0.001006 0.000000 0
0.000704 0.000000 0
0.002260 0.000000 0
0.003573 0.000000 0
0.004584 0.000000 0
0.005261 0.000000 0
0.005601 0.000000 0
0.005617 0.000000 0
0.005332 0.000000 0
0.004769 0.000000 0
0.003947 0.000000 0
0.002891 0.000000 0
0.001643 0.000000 0
0.000286 0.000000 0
-0.000997 0.000000 0
-0.002092 0.000000 0
-0.003012 0.000000 0
-0.003789 0.000000 0
-0.004443 0.000000 0
-0.004974 0.000000 0
-0.005351 0.000000 0
-0.005503 0.000000 0
-0.005332 0.000000 0
-0.004736 0.000000 0
-0.003673 0.000000 0
-0.002217 0.000000 0
-0.000571 0.000000 0
0.001107 0.000000 0
0.002726 0.000000 0
0.004182 0.000000 0
0.005361 0.000000 0
0.006153 0.000000 0
0.006460 0.000000 0
0.006219 0.000000 0
0.005431 0.000000 0
0.004187 0.000000 0
0.002668 0.000000 0
0.001105 0.000000 0
-0.000262 0.000000 0
-0.001228 0.000000 0
-0.001852 0.000000 0
-0.002245 0.000000 0
-0.002499 0.000000 0
-0.002682 0.000000 0
-0.002835 0.000000 0
-0.002981 0.000000 0
-0.003127 0.000000 0
-0.003391 0.000000 0
1.000000 0.000002 0
1.002668 -0.004861 0
1.010972 -0.010538 0
1.025321 -0.016709 0
1.046152 -0.023155 0
1.073724 -0.029480 0
1.107806 -0.034994 0
1.147255 -0.038744 0
1.189715 -0.039751 0
1.231480 -0.037614 0
1.269100 -0.032831 0
1.300335 -0.026340 0
1.324103 -0.019039 0
1.340116 -0.011609 0
1.348609 -0.004572 0
1.350237 0.001662 0
1.346001 0.006777 0
1.337180 0.010538 0
1.325276 0.012779 0
1.311925 0.013430 0
1.298782 0.012532 0
1.287398 0.010247 0
1.279102 0.006854 0
1.274891 0.002756 0
1.275287 -0.001450 0
1.280089 -0.004938 0
1.288151 -0.006853 0
1.297401 -0.006621 0
1.305273 -0.004190 0
1.309405 -0.000001 0
1.308219 0.005280 0
1.301032 0.010951 0
1.287907 0.016398 0
1.269436 0.021173 0
1.246550 0.024991 0
1.220358 0.027693 0
1.192056 0.029199 0
1.162879 0.029471 0
1.134076 0.028491 0
1.106906 0.026248 0
1.082624 0.022720 0
1.062471 0.017853 0
1.047644 0.011557 0
1.039244 0.003852 0
1.038211 -0.004788 0
1.045236 -0.013596 0
1.060556 -0.021818 0
1.083691 -0.028625 0
1.113268 -0.033119 0
1.147010 -0.034477 0
1.181831 -0.032153 0
1.214073 -0.026142 0
1.239986 -0.017225 0
1.256494 -0.006886 0
1.262003 0.003464 0
1.256713 0.013035 0
1.241804 0.021327 0
1.218930 0.027945 0
1.190033 0.032659 0
1.157177 0.035382 0
1.122418 0.036136 0
1.087726 0.034992 0
1.054940 0.032035 0
1.025724 0.027351 0
1.001498 0.021066 0
0.983314 0.013435 0
0.971739 0.005019 0
0.966833 -0.003165 0
0.968299 -0.010282 0
0.975533 -0.016185 0
0.987876 -0.021010 0
1.004705 -0.024899 0
1.025455 -0.027898 0
1.049563 -0.029890 0
1.076311 -0.030549 0
1.104601 -0.029383 0
1.132781 -0.025884 0
1.158608 -0.019815 0
1.179434 -0.011541 0
1.192623 -0.002028 0
1.196243 0.007773 0
1.189870 0.017254 0
1.174130 0.025852 0
1.150270 0.032940 0
1.120122 0.037885 0
1.086023 0.040103 0
1.050665 0.039173 0
1.016841 0.035014 0
0.987064 0.028053 0
0.963146 0.019260 0
0.945914 0.009981 0
0.935209 0.001679 0
0.930206 -0.004528 0
0.929769 -0.008512 0
0.932605 -0.010825 0
0.937598 -0.011989 0
0.943944 -0.012352 0
0.951070 -0.012054 0
0.958489 -0.011015 0
0.965618 -0.008271 0
0.970547 -0.006519 0
1.000000 0.000004 0
1.002988 -0.010988 0
1.011755 -0.022664 0
1.026668 -0.035190 0
1.048393 -0.048413 0
1.077627 -0.061665 0
1.114700 -0.073543 0
1.158873 -0.081920 0
1.207754 -0.084235 0
1.255451 -0.079396 0
1.297203 -0.068865 0
1.330832 -0.055014 0
1.355802 -0.039792 0
1.372246 -0.024515 0
1.380592 -0.010131 0
1.381628 0.002598 0
1.376438 0.013047 0
1.366385 0.020715 0
1.353088 0.025246 0
1.338336 0.026485 0
1.323946 0.024517 0
1.311621 0.019670 0
1.302835 0.012497 0
1.298775 0.003805 0
1.300274 -0.005209 0
1.307429 -0.012875 0
1.319099 -0.017322 0
1.332741 -0.017132 0
1.344940 -0.012016 0
1.352534 -0.002958 0
1.353690 0.008361 0
1.347930 0.020301 0
1.335607 0.031585 0
1.317587 0.041345 0
1.294991 0.049067 0
1.269032 0.054483 0
1.240935 0.057468 0
1.211914 0.057969 0
1.183170 0.055962 0
1.155887 0.051441 0
1.131221 0.044424 0
1.110254 0.034969 0
1.093935 0.023216 0
1.083035 0.009423 0
1.078247 -0.006002 0
1.080422 -0.022357 0
1.090168 -0.038467 0
1.107534 -0.052723 0
1.131908 -0.063330 0
1.162085 -0.068575 0
1.196178 -0.067075 0
1.231395 -0.058166 0
1.263966 -0.042433 0
1.289561 -0.022029 0
1.304410 -0.000232 0
1.307129 0.020186 0
1.298939 0.037771 0
1.281715 0.051758 0
1.257587 0.061740 0
1.228746 0.067603 0
1.197307 0.069439 0
1.165221 0.067466 0
1.134198 0.061989 0
1.105638 0.053430 0
1.080548 0.042398 0
1.059494 0.029747 0
1.042631 0.016469 0
1.029928 0.003429 0
1.021551 -0.008710 0
1.017568 -0.019588 0
1.017886 -0.029183 0
1.022427 -0.037589 0
1.031262 -0.044867 0
1.044599 -0.050864 0
1.062579 -0.055046 0
1.084948 -0.056478 0
1.110796 -0.054014 0
1.138462 -0.046661 0
1.165533 -0.034022 0
1.188936 -0.016815 0
1.205408 0.002747 0
1.212702 0.022107 0
1.210745 0.039595 0
1.200486 0.054003 0
1.183418 0.064243 0
1.161387 0.069453 0
1.136367 0.069178 0
1.110222 0.063597 0
1.084496 0.053691 0
1.060309 0.041145 0
1.038374 0.027933 0
1.019121 0.015704 0
1.002908 0.005437 0
0.989970 -0.002402 0
0.980087 -0.007833 0
0.972797 -0.011343 0
0.967684 -0.013476 0
0.964550 -0.014549 0
0.963343 -0.014552 0
0.963991 -0.012062 0
0.966194 -0.010498 0
1.000000 0.000007 0
1.002588 -0.016626 0
1.010533 -0.034222 0
1.024495 -0.053352 0
1.045643 -0.074119 0
1.075535 -0.095792 0
1.115739 -0.116244 0
1.166680 -0.131802 0
1.227061 -0.136333 0
1.284073 -0.127067 0
1.330512 -0.108215 0
1.365473 -0.084943 0
1.390087 -0.060456 0
1.405333 -0.036403 0
1.411768 -0.013958 0
1.410238 0.005812 0
1.401838 0.022017 0
1.388027 0.033885 0
1.370634 0.040824 0
1.351725 0.042568 0
1.333417 0.039243 0
1.317680 0.031353 0
1.306186 0.019696 0
1.300330 0.005312 0
1.301434 -0.010109 0
1.310310 -0.023768 0
1.326061 -0.032169 0
1.345542 -0.032466 0
1.363926 -0.023988 0
1.376374 -0.008756 0
1.380164 0.009879 0
1.375216 0.029029 0
1.362518 0.046737 0
1.343491 0.061784 0
1.319628 0.073541 0
1.292322 0.081745 0
1.262838 0.086312 0
1.232341 0.087232 0
1.201939 0.084513 0
1.172703 0.078192 0
1.145669 0.068349 0
1.121805 0.055134 0
1.101952 0.038771 0
1.086764 0.019535 0
1.076677 -0.002180 0
1.072019 -0.025522 0
1.073196 -0.048935 0
1.080519 -0.070370 0
1.094334 -0.087675 0
1.115118 -0.098752 0
1.142966 -0.101469 0
1.176748 -0.093935 0
1.213573 -0.075395 0
1.248817 -0.047335 0
1.276872 -0.014110 0
1.292900 0.018501 0
1.296072 0.046736 0
1.288349 0.069291 0
1.272003 0.085623 0
1.249358 0.095657 0
1.222606 0.099655 0
1.193696 0.098096 0
1.164268 0.091613 0
1.135604 0.080996 0
1.108638 0.067204 0
1.084007 0.051347 0
1.062117 0.034580 0
1.043131 0.017912 0
1.026927 0.002074 0
1.013314 -0.012524 0
1.002289 -0.025873 0
0.994449 -0.038278 0
0.990916 -0.050074 0
0.993024 -0.061211 0
1.001795 -0.070902 0
1.017424 -0.077604 0
1.039160 -0.079402 0
1.065483 -0.074555 0
1.094347 -0.062018 0
1.123318 -0.041905 0
1.149552 -0.015996 0
1.169747 0.011913 0
1.181709 0.038065 0
1.185494 0.060264 0
1.181858 0.076981 0
1.171920 0.087151 0
1.156923 0.090335 0
1.138074 0.086882 0
1.116484 0.077963 0
1.093211 0.065380 0
1.069317 0.051166 0
1.045803 0.037142 0
1.023399 0.024620 0
1.002491 0.014306 0
0.983355 0.006344 0
0.966236 0.000409 0
0.951468 -0.004109 0
0.939555 -0.007717 0
0.931036 -0.010460 0
0.926300 -0.011126 0
0.926188 -0.011754 0
1.000000 0.000010 0
1.002053 -0.021532 0
1.008525 -0.044576 0
1.020361 -0.070304 0
1.039353 -0.099457 0
1.068312 -0.131765 0
1.111057 -0.164691 0
1.170955 -0.193246 0
1.252517 -0.201632 0
1.321383 -0.182851 0
1.369210 -0.150269 0
1.401127 -0.114592 0
1.422234 -0.079655 0
1.434706 -0.046200 0
1.438483 -0.015040 0
1.433712 0.012525 0
1.421099 0.035255 0
1.402129 0.051915 0
1.378918 0.061543 0
1.353951 0.063698 0
1.329807 0.058559 0
1.308838 0.046897 0
1.292886 0.029842 0
1.283228 0.008553 0
1.281127 -0.015193 0
1.288628 -0.037508 0
1.306100 -0.052558 0
1.330920 -0.055002 0
1.357661 -0.042853 0
1.379089 -0.019200 0
1.389099 0.009515 0
1.386924 0.037942 0
1.374840 0.063304 0
1.355284 0.084230 0
1.330356 0.100231 0
1.301719 0.111268 0
1.270699 0.117444 0
1.238427 0.118863 0
1.205938 0.115595 0
1.174241 0.107706 0
1.144339 0.095318 0
1.117181 0.078682 0
1.093489 0.058252 0
1.073420 0.034692 0
1.056278 0.008738 0
1.040859 -0.018880 0
1.026945 -0.046972 0
1.016398 -0.073866 0
1.012177 -0.097934 0
1.017591 -0.117212 0
1.034703 -0.128710 0
1.063316 -0.128778 0
1.101030 -0.114507 0
1.143635 -0.085333 0
1.185406 -0.044320 0
1.219557 0.000981 0
1.240434 0.042317 0
1.248172 0.075821 0
1.244895 0.100725 0
1.232904 0.116996 0
1.214439 0.125096 0
1.191532 0.125798 0
1.165932 0.120076 0
1.139067 0.109055 0
1.112047 0.093990 0
1.085661 0.076264 0
1.060313 0.057340 0
1.035957 0.038614 0
1.012196 0.021102 0
0.988794 0.005045 0
0.966364 -0.010322 0
0.946724 -0.026220 0
0.932697 -0.043446 0
0.926798 -0.061748 0
0.930096 -0.079450 0
0.942145 -0.093846 0
0.961549 -0.102077 0
0.986524 -0.101852 0
1.015191 -0.091861 0
1.045664 -0.072023 0
1.075960 -0.043685 0
1.103686 -0.010054 0
1.125669 0.023844 0
1.140275 0.053850 0
1.147458 0.077813 0
1.147630 0.094384 0
1.141449 0.103019 0
1.129692 0.104033 0
1.113222 0.098550 0
1.092998 0.088307 0
1.070035 0.075336 0
1.045291 0.061618 0
1.019567 0.048745 0
0.993552 0.037638 0
0.968031 0.028417 0
0.944079 0.020538 0
0.923002 0.013200 0
0.906025 0.005879 0
0.893983 -0.001302 0
0.887150 -0.007218 0
0.885952 -0.011252 0
1.000000 0.000013 0
1.001218 -0.025161 0
1.005197 -0.052535 0
1.012992 -0.084184 0
1.026815 -0.122073 0
1.050767 -0.167500 0
1.091936 -0.218891 0
1.160046 -0.273266 0
1.278137 -0.286765 0
1.351903 -0.243764 0
1.386048 -0.187963 0
1.403067 -0.137972 0
1.414015 -0.094039 0
1.421752 -0.052655 0
1.423585 -0.012969 0
1.416390 0.023192 0
1.399931 0.053596 0
1.375660 0.076061 0
1.345985 0.088998 0
1.313840 0.091675 0
1.282348 0.084351 0
1.254310 0.068271 0
1.231572 0.045302 0
1.214736 0.017066 0
1.203601 -0.015514 0
1.200432 -0.048746 0
1.209259 -0.074466 0
1.231108 -0.084032 0
1.263444 -0.072162 0
1.298902 -0.040198 0
1.326267 0.002039 0
1.337093 0.043283 0
1.334044 0.078372 0
1.321168 0.106264 0
1.301388 0.127102 0
1.276661 0.141396 0
1.248374 0.149599 0
1.217639 0.151989 0
1.185474 0.148694 0
1.152883 0.139786 0
1.120877 0.125405 0
1.090374 0.105981 0
1.061816 0.082528 0
1.034444 0.056741 0
1.005972 0.030376 0
0.974057 0.003807 0
0.939252 -0.024479 0
0.907108 -0.055608 0
0.886217 -0.088873 0
0.881581 -0.121283 0
0.893484 -0.147198 0
0.919742 -0.160267 0
0.957303 -0.155719 0
1.002675 -0.131716 0
1.051760 -0.090037 0
1.099424 -0.036533 0
1.138718 0.018116 0
1.164616 0.064825 0
1.177927 0.100885 0
1.180399 0.126108 0
1.173974 0.141022 0
1.160564 0.146597 0
1.141923 0.144074 0
1.119549 0.134876 0
1.094590 0.120606 0
1.067700 0.103077 0
1.038941 0.084280 0
1.008003 0.066024 0
0.974953 0.049233 0
0.941218 0.033303 0
0.909868 0.016192 0
0.884626 -0.004615 0
0.868482 -0.030151 0
0.862792 -0.058615 0
0.866931 -0.086253 0
0.879225 -0.109061 0
0.897869 -0.123784 0
0.921293 -0.128201 0
0.948138 -0.121162 0
0.977135 -0.102678 0
1.006986 -0.074022 0
1.036237 -0.037801 0
1.062781 0.001472 0
1.083784 0.038470 0
1.098181 0.069620 0
1.105709 0.093155 0
1.106483 0.108268 0
1.100867 0.115104 0
1.089397 0.114651 0
1.072733 0.108562 0
1.051602 0.098868 0
1.026778 0.087604 0
0.999174 0.076353 0
0.970017 0.065836 0
0.940988 0.055812 0
0.914089 0.045433 0
0.891246 0.033939 0
0.873808 0.021296 0
0.862260 0.008410 0
0.856250 -0.003101 0
0.855071 -0.010406 0
1.000000 0.000017 0
1.000025 -0.026739 0
1.000310 -0.056354 0
1.001605 -0.091926 0
1.005780 -0.137236 0
1.017148 -0.196890 0
1.045441 -0.273974 0
1.110461 -0.379452 0
1.277279 -0.393494 0
1.324769 -0.290765 0
1.311728 -0.201437 0
1.295189 -0.142563 0
1.286677 -0.098344 0
1.288324 -0.055774 0
1.292865 -0.009681 0
1.287763 0.036175 0
1.271540 0.075981 0
1.245588 0.105857 0
1.212113 0.123359 0
1.174026 0.127331 0
1.134823 0.118085 0
1.097661 0.097668 0
1.063678 0.069412 0
1.031851 0.036520 0
1.001669 -0.000894 0
0.975296 -0.043170 0
0.963210 -0.083239 0
0.974673 -0.109191 0
1.009664 -0.110651 0
1.061428 -0.082028 0
1.118078 -0.028680 0
1.163878 0.030161 0
1.189511 0.079224 0
1.199953 0.116882 0
1.199388 0.144734 0
1.190215 0.164277 0
1.174030 0.176462 0
1.152129 0.181759 0
1.125699 0.180347 0
1.095781 0.172299 0
1.062994 0.157822 0
1.026964 0.137738 0
0.985997 0.114178 0
0.938273 0.090532 0
0.884840 0.069120 0
0.831565 0.047836 0
0.786917 0.019973 0
0.757571 -0.020836 0
0.746126 -0.072413 0
0.750731 -0.124484 0
0.768052 -0.166876 0
0.795530 -0.192602 0
0.831540 -0.197445 0
0.874612 -0.179795 0
0.922741 -0.141074 0
0.973062 -0.085981 0
1.021416 -0.022880 0
1.060952 0.036606 0
1.088440 0.084937 0
1.104515 0.120944 0
1.110352 0.144925 0
1.107351 0.157843 0
1.096910 0.161086 0
1.080223 0.156384 0
1.058064 0.145835 0
1.030667 0.131908 0
0.997971 0.117033 0
0.960475 0.102598 0
0.920359 0.087882 0
0.881845 0.070126 0
0.850033 0.046266 0
0.828759 0.015161 0
0.818917 -0.021616 0
0.818925 -0.060201 0
0.826356 -0.095887 0
0.839186 -0.124789 0
0.856116 -0.144150 0
0.876388 -0.152125 0
0.899459 -0.147707 0
0.924725 -0.130876 0
0.951400 -0.102792 0
0.978483 -0.065853 0
1.004721 -0.023708 0
1.027881 0.018444 0
1.045863 0.055882 0
1.057813 0.086077 0
1.063335 0.107855 0
1.062355 0.121113 0
1.055013 0.126679 0
1.041613 0.126097 0
1.022631 0.121285 0
0.998838 0.114040 0
0.971489 0.105500 0
0.942455 0.095817 0
0.914077 0.084338 0
0.888707 0.070273 0
0.868134 0.053475 0
0.853214 0.034857 0
0.843870 0.016248 0
0.839359 -0.000035 0
0.838552 -0.009883 0
1.000000 0.000020 0
0.998575 -0.025481 0
0.994252 -0.054119 0
0.986904 -0.089658 0
0.976700 -0.137620 0
0.965184 -0.207165 0
0.958767 -0.312209 0
0.979644 -0.505107 0
1.140253 -0.501078 0
1.123859 -0.278217 0
1.016674 -0.158386 0
0.956184 -0.112925 0
0.923185 -0.087178 0
0.920775 -0.058847 0
0.939292 -0.012412 0
0.951832 0.044514 0
0.949829 0.095768 0
0.933935 0.135484 0
0.903916 0.160556 0
0.859681 0.168961 0
0.802249 0.160713 0
0.735377 0.139411 0
0.667335 0.111108 0
0.609706 0.079071 0
0.572816 0.041037 0
0.561385 -0.010291 0
0.573624 -0.073847 0
0.606932 -0.130491 0
0.658906 -0.158922 0
0.726720 -0.148617 0
0.806039 -0.100415 0
0.887767 -0.028153 0
0.955560 0.042293 0
1.001409 0.096382 0
1.030211 0.136835 0
1.045221 0.166750 0
1.048278 0.187681 0
1.040804 0.200316 0
1.023900 0.205039 0
0.998061 0.202486 0
0.962750 0.194217 0
0.916498 0.182973 0
0.858637 0.171214 0
0.792681 0.157894 0
0.728361 0.137079 0
0.678434 0.101725 0
0.651609 0.049511 0
0.647676 -0.014822 0
0.658147 -0.082038 0
0.675301 -0.143214 0
0.695948 -0.192002 0
0.720082 -0.223761 0
0.749020 -0.234807 0
0.783894 -0.222922 0
0.824643 -0.188491 0
0.869758 -0.135212 0
0.916587 -0.069780 0
0.960907 -0.002205 0
0.996563 0.057317 0
1.021930 0.104191 0
1.037106 0.138182 0
1.042665 0.160034 0
1.039316 0.171196 0
1.027628 0.173718 0
1.007890 0.170156 0
0.980326 0.163165 0
0.945851 0.154467 0
0.907077 0.143632 0
0.868599 0.127858 0
0.835794 0.103624 0
0.812704 0.069273 0
0.800610 0.026496 0
0.798245 -0.020322 0
0.802743 -0.066058 0
0.811474 -0.106519 0
0.822851 -0.138825 0
0.836231 -0.160992 0
0.851584 -0.171549 0
0.869111 -0.169504 0
0.888873 -0.154625 0
0.910571 -0.127785 0
0.933510 -0.091127 0
0.956689 -0.047932 0
0.978740 -0.002678 0
0.997389 0.039682 0
1.011222 0.075676 0
1.019411 0.103719 0
1.021486 0.123419 0
1.017246 0.135387 0
1.006752 0.140937 0
0.990432 0.141635 0
0.969251 0.138739 0
0.944849 0.132728 0
0.919435 0.123241 0
0.895392 0.109552 0
0.874713 0.091368 0
0.858574 0.069424 0
0.847250 0.045553 0
0.840342 0.022257 0
0.837090 0.002210 0
0.836693 -0.009650 0
1.000000 0.000022 0
0.997164 -0.021000 0
0.988279 -0.044688 0
0.971994 -0.074379 0
0.945665 -0.115521 0
0.904545 -0.178961 0
0.839986 -0.288437 0
0.736932 -0.560941 0
0.552368 -0.537713 0
-0.000369 -0.167191 0
0.396831 -0.033766 0
0.322192 -0.049078 0
0.321499 -0.062938 0
0.358699 -0.071884 0
0.409458 -0.040743 0
0.457148 0.025634 0
0.482035 0.093875 0
0.486419 0.151766 0
0.467898 0.197609 0
0.425211 0.228993 0
0.361730 0.242384 0
0.288727 0.232578 0
0.225551 0.195079 0
0.190475 0.131035 0
0.191879 0.047422 0
0.226173 -0.043983 0
0.276931 -0.128790 0
0.332586 -0.194477 0
0.392007 -0.230445 0
0.458651 -0.229165 0
0.535510 -0.189732 0
0.622180 -0.119365 0
0.711068 -0.034422 0
0.785754 0.042226 0
0.839486 0.100918 0
0.875613 0.146206 0
0.895841 0.180875 0
0.901122 0.206132 0
0.891876 0.223085 0
0.867971 0.233444 0
0.829277 0.239381 0
0.777496 0.241847 0
0.718750 0.237990 0
0.664048 0.220804 0
0.625078 0.183362 0
0.608000 0.124583 0
0.611028 0.050726 0
0.626904 -0.027379 0
0.646656 -0.100043 0
0.665171 -0.162290 0
0.681150 -0.211662 0
0.695916 -0.245679 0
0.712360 -0.261262 0
0.733659 -0.255423 0
0.761814 -0.226944 0
0.796709 -0.177931 0
0.836289 -0.114035 0
0.877387 -0.043375 0
0.914945 0.023909 0
0.944539 0.080396 0
0.965018 0.124185 0
0.976025 0.155628 0
0.977504 0.176119 0
0.969486 0.187804 0
0.952207 0.193132 0
0.926663 0.193942 0
0.895389 0.190277 0
0.862726 0.179846 0
0.833874 0.159160 0
0.812973 0.126015 0
0.801611 0.081445 0
0.798843 0.029616 0
0.802367 -0.023754 0
0.809503 -0.073435 0
0.818168 -0.116001 0
0.827190 -0.149550 0
0.836260 -0.172888 0
0.845777 -0.185010 0
0.856545 -0.185001 0
0.869347 -0.172342 0
0.884531 -0.147435 0
0.901824 -0.111978 0
0.920421 -0.068945 0
0.939172 -0.022262 0
0.956319 0.023393 0
0.970041 0.064048 0
0.979184 0.097583 0
0.982992 0.123270 0
0.981053 0.141405 0
0.973350 0.152903 0
0.960394 0.158778 0
0.943356 0.159615 0
0.924029 0.155308 0
0.904531 0.145265 0
0.886814 0.129051 0
0.872215 0.107083 0
0.861280 0.080929 0
0.853893 0.053080 0
0.849562 0.026400 0
0.847670 0.003605 0
0.847808 -0.009785 0
1.000000 0.000023 0
0.996193 -0.013769 0
0.984166 -0.028952 0
0.961711 -0.047048 0
0.924211 -0.070175 0
0.862393 -0.101490 0
0.756453 -0.144599 0
0.563009 -0.217492 0
0.073337 0.000157 0
-0.531158 0.133574 0
0.000000 0.000074 0
-0.033417 -0.048892 0
-0.057691 -0.123689 0
-0.026908 -0.146810 0
-0.006968 -0.110864 0
0.028277 -0.028067 0
0.067378 0.066493 0
0.091468 0.149617 0
0.093827 0.221759 0
0.075087 0.275126 0
0.044584 0.297193 0
0.022382 0.275586 0
0.026193 0.209355 0
0.056823 0.112739 0
0.106406 0.005334 0
0.158511 -0.095348 0
0.205020 -0.180265 0
0.244880 -0.245572 0
0.281736 -0.284992 0
0.322443 -0.292124 0
0.373723 -0.263949 0
0.438766 -0.203716 0
0.515563 -0.121286 0
0.595039 -0.032041 0
0.661557 0.046972 0
0.709548 0.110391 0
0.739945 0.162167 0
0.753043 0.204276 0
0.748997 0.238185 0
0.728648 0.265081 0
0.694993 0.284687 0
0.654783 0.293495 0
0.618369 0.284658 0
0.596126 0.251561 0
0.593352 0.193122 0
0.608220 0.115771 0
0.634209 0.030603 0
0.662376 -0.050454 0
0.686404 -0.120310 0
0.703717 -0.177713 0
0.713827 -0.222752 0
0.718176 -0.254976 0
0.720110 -0.272556 0
0.724263 -0.272381 0
0.735009 -0.251546 0
0.754604 -0.209693 0
0.782314 -0.150463 0
0.815116 -0.080866 0
0.848909 -0.009840 0
0.878214 0.054113 0
0.900209 0.106691 0
0.913654 0.147543 0
0.917928 0.177730 0
0.912904 0.199010 0
0.899265 0.212974 0