# vtk DataFile Version 2.0
generated by CFD-lab course output (written by Tobias Neckel) 
ASCII

DATASET STRUCTURED_GRID
DIMENSIONS  101 21 1 
POINTS 2121 float

0.000000 0.000000 0
0.100000 0.000000 0
0.200000 0.000000 0
0.300000 0.000000 0
0.400000 0.000000 0
0.500000 0.000000 0
0.600000 0.000000 0
0.700000 0.000000 0
0.800000 0.000000 0
0.900000 0.000000 0
1.000000 0.000000 0
1.100000 0.000000 0
1.200000 0.000000 0
1.300000 0.000000 0
1.400000 0.000000 0
1.500000 0.000000 0
1.600000 0.000000 0
1.700000 0.000000 0
1.800000 0.000000 0
1.900000 0.000000 0
2.000000 0.000000 0
2.100000 0.000000 0
2.200000 0.000000 0
2.300000 0.000000 0
2.400000 0.000000 0
2.500000 0.000000 0
2.600000 0.000000 0
2.700000 0.000000 0
2.800000 0.000000 0
2.900000 0.000000 0
3.000000 0.000000 0
3.100000 0.000000 0
3.200000 0.000000 0
3.300000 0.000000 0
3.400000 0.000000 0
3.500000 0.000000 0
3.600000 0.000000 0
3.700000 0.000000 0
3.800000 0.000000 0
3.900000 0.000000 0
4.000000 0.000000 0
4.100000 0.000000 0
4.200000 0.000000 0
4.300000 0.000000 0
4.400000 0.000000 0
4.500000 0.000000 0
4.600000 0.000000 0
4.700000 0.000000 0
4.800000 0.000000 0
4.900000 0.000000 0
5.000000 0.000000 0
5.100000 0.000000 0
5.200000 0.000000 0
5.300000 0.000000 0
5.400000 0.000000 0
5.500000 0.000000 0
5.600000 0.000000 0
5.700000 0.000000 0
5.800000 0.000000 0
5.900000 0.000000 0
6.000000 0.000000 0
6.100000 0.000000 0
6.200000 0.000000 0
6.300000 0.000000 0
6.400000 0.000000 0
6.500000 0.000000 0
6.600000 0.000000 0
6.700000 0.000000 0
6.800000 0.000000 0
6.900000 0.000000 0
7.000000 0.000000 0
7.100000 0.000000 0
7.200000 0.000000 0
7.300000 0.000000 0
7.400000 0.000000 0
7.500000 0.000000 0
7.600000 0.000000 0
7.700000 0.000000 0
7.800000 0.000000 0
7.900000 0.000000 0
8.000000 0.000000 0
8.100000 0.000000 0
8.200000 0.000000 0
8.300000 0.000000 0
8.400000 0.000000 0
8.500000 0.000000 0
8.600000 0.000000 0
8.700000 0.000000 0
8.800000 0.000000 0
8.900000 0.000000 0
9.000000 0.000000 0
9.100000 0.000000 0
9.200000 0.000000 0
9.300000 0.000000 0
9.400000 0.000000 0
9.500000 0.000000 0
9.600000 0.000000 0
9.700000 0.000000 0
9.800000 0.000000 0
9.900000 0.000000 0
10.000000 0.000000 0
0.000000 0.100000 0
0.100000 0.100000 0
0.200000 0.100000 0
0.300000 0.100000 0
0.400000 0.100000 0
0.500000 0.100000 0
0.600000 0.100000 0
0.700000 0.100000 0
0.800000 0.100000 0
0.900000 0.100000 0
1.000000 0.100000 0
1.100000 0.100000 0
1.200000 0.100000 0
1.300000 0.100000 0
1.400000 0.100000 0
1.500000 0.100000 0
1.600000 0.100000 0
1.700000 0.100000 0
1.800000 0.100000 0
1.900000 0.100000 0
2.000000 0.100000 0
2.100000 0.100000 0
2.200000 0.100000 0
2.300000 0.100000 0
2.400000 0.100000 0
2.500000 0.100000 0
2.600000 0.100000 0
2.700000 0.100000 0
2.800000 0.100000 0
2.900000 0.100000 0
3.000000 0.100000 0
3.100000 0.100000 0
3.200000 0.100000 0
3.300000 0.100000 0
3.400000 0.100000 0
3.500000 0.100000 0
3.600000 0.100000 0
3.700000 0.100000 0
3.800000 0.100000 0
3.900000 0.100000 0
4.000000 0.100000 0
4.100000 0.100000 0
4.200000 0.100000 0
4.300000 0.100000 0
4.400000 0.100000 0
4.500000 0.100000 0
4.600000 0.100000 0
4.700000 0.100000 0
4.800000 0.100000 0
4.900000 0.100000 0
5.000000 0.100000 0
5.100000 0.100000 0
5.200000 0.100000 0
5.300000 0.100000 0
5.400000 0.100000 0
5.500000 0.100000 0
5.600000 0.100000 0
5.700000 0.100000 0
5.800000 0.100000 0
5.900000 0.100000 0
6.000000 0.100000 0
6.100000 0.100000 0
6.200000 0.100000 0
6.300000 0.100000 0
6.400000 0.100000 0
6.500000 0.100000 0
6.600000 0.100000 0
6.700000 0.100000 0
6.800000 0.100000 0
6.900000 0.100000 0
7.000000 0.100000 0
7.100000 0.100000 0
7.200000 0.100000 0
7.300000 0.100000 0
7.400000 0.100000 0
7.500000 0.100000 0
7.600000 0.100000 0
7.700000 0.100000 0
7.800000 0.100000 0
7.900000 0.100000 0
8.000000 0.100000 0
8.100000 0.100000 0
8.200000 0.100000 0
8.300000 0.100000 0
8.400000 0.100000 0
8.500000 0.100000 0
8.600000 0.100000 0
8.700000 0.100000 0
8.800000 0.100000 0
8.900000 0.100000 0
9.000000 0.100000 0
9.100000 0.100000 0
9.200000 0.100000 0
9.300000 0.100000 0
9.400000 0.100000 0
9.500000 0.100000 0
9.600000 0.100000 0
9.700000 0.100000 0
9.800000 0.100000 0
9.900000 0.100000 0
10.000000 0.100000 0
0.000000 0.200000 0
0.100000 0.200000 0
0.200000 0.200000 0
0.300000 0.200000 0
0.400000 0.200000 0
0.500000 0.200000 0
0.600000 0.200000 0
0.700000 0.200000 0
0.800000 0.200000 0
0.900000 0.200000 0
1.000000 0.200000 0
1.100000 0.200000 0
1.200000 0.200000 0
1.300000 0.200000 0
1.400000 0.200000 0
1.500000 0.200000 0
1.600000 0.200000 0
1.700000 0.200000 0
1.800000 0.200000 0
1.900000 0.200000 0
2.000000 0.200000 0
2.100000 0.200000 0
2.200000 0.200000 0
2.300000 0.200000 0
2.400000 0.200000 0
2.500000 0.200000 0
2.600000 0.200000 0
2.700000 0.200000 0
2.800000 0.200000 0
2.900000 0.200000 0
3.000000 0.200000 0
3.100000 0.200000 0
3.200000 0.200000 0
3.300000 0.200000 0
3.400000 0.200000 0
3.500000 0.200000 0
3.600000 0.200000 0
3.700000 0.200000 0
3.800000 0.200000 0
3.900000 0.200000 0
4.000000 0.200000 0
4.100000 0.200000 0
4.200000 0.200000 0
4.300000 0.200000 0
4.400000 0.200000 0
4.500000 0.200000 0
4.600000 0.200000 0
4.700000 0.200000 0
4.800000 0.200000 0
4.900000 0.200000 0
5.000000 0.200000 0
5.100000 0.200000 0
5.200000 0.200000 0
5.300000 0.200000 0
5.400000 0.200000 0
5.500000 0.200000 0
5.600000 0.200000 0
5.700000 0.200000 0
5.800000 0.200000 0
5.900000 0.200000 0
6.000000 0.200000 0
6.100000 0.200000 0
6.200000 0.200000 0
6.300000 0.200000 0
6.400000 0.200000 0
6.500000 0.200000 0
6.600000 0.200000 0
6.700000 0.200000 0
6.800000 0.200000 0
6.900000 0.200000 0
7.000000 0.200000 0
7.100000 0.200000 0
7.200000 0.200000 0
7.300000 0.200000 0
7.400000 0.200000 0
7.500000 0.200000 0
7.600000 0.200000 0
7.700000 0.200000 0
7.800000 0.200000 0
7.900000 0.200000 0
8.000000 0.200000 0
8.100000 0.200000 0
8.200000 0.200000 0
8.300000 0.200000 0
8.400000 0.200000 0
8.500000 0.200000 0
8.600000 0.200000 0
8.700000 0.200000 0
8.800000 0.200000 0
8.900000 0.200000 0
9.000000 0.200000 0
9.100000 0.200000 0
9.200000 0.200000 0
9.300000 0.200000 0
9.400000 0.200000 0
9.500000 0.200000 0
9.600000 0.200000 0
9.700000 0.200000 0
9.800000 0.200000 0
9.900000 0.200000 0
10.000000 0.200000 0
0.000000 0.300000 0
0.100000 0.300000 0
0.200000 0.300000 0
0.300000 0.300000 0
0.400000 0.300000 0
0.500000 0.300000 0
0.600000 0.300000 0
0.700000 0.300000 0
0.800000 0.300000 0
0.900000 0.300000 0
1.000000 0.300000 0
1.100000 0.300000 0
1.200000 0.300000 0
1.300000 0.300000 0
1.400000 0.300000 0
1.500000 0.300000 0
1.600000 0.300000 0
1.700000 0.300000 0
1.800000 0.300000 0
1.900000 0.300000 0
2.000000 0.300000 0
2.100000 0.300000 0
2.200000 0.300000 0
2.300000 0.300000 0
2.400000 0.300000 0
2.500000 0.300000 0
2.600000 0.300000 0
2.700000 0.300000 0
2.800000 0.300000 0
2.900000 0.300000 0
3.000000 0.300000 0
3.100000 0.300000 0
3.200000 0.300000 0
3.300000 0.300000 0
3.400000 0.300000 0
3.500000 0.300000 0
3.600000 0.300000 0
3.700000 0.300000 0
3.800000 0.300000 0
3.900000 0.300000 0
4.000000 0.300000 0
4.100000 0.300000 0
4.200000 0.300000 0
4.300000 0.300000 0
4.400000 0.300000 0
4.500000 0.300000 0
4.600000 0.300000 0
4.700000 0.300000 0
4.800000 0.300000 0
4.900000 0.300000 0
5.000000 0.300000 0
5.100000 0.300000 0
5.200000 0.300000 0
5.300000 0.300000 0
5.400000 0.300000 0
5.500000 0.300000 0
5.600000 0.300000 0
5.700000 0.300000 0
5.800000 0.300000 0
5.900000 0.300000 0
6.000000 0.300000 0
6.100000 0.300000 0
6.200000 0.300000 0
6.300000 0.300000 0
6.400000 0.300000 0
6.500000 0.300000 0
6.600000 0.300000 0
6.700000 0.300000 0
6.800000 0.300000 0
6.900000 0.300000 0
7.000000 0.300000 0
7.100000 0.300000 0
7.200000 0.300000 0
7.300000 0.300000 0
7.400000 0.300000 0
7.500000 0.300000 0
7.600000 0.300000 0
7.700000 0.300000 0
7.800000 0.300000 0
7.900000 0.300000 0
8.000000 0.300000 0
8.100000 0.300000 0
8.200000 0.300000 0
8.300000 0.300000 0
8.400000 0.300000 0
8.500000 0.300000 0
8.600000 0.300000 0
8.700000 0.300000 0
8.800000 0.300000 0
8.900000 0.300000 0
9.000000 0.300000 0
9.100000 0.300000 0
9.200000 0.300000 0
9.300000 0.300000 0
9.400000 0.300000 0
9.500000 0.300000 0
9.600000 0.300000 0
9.700000 0.300000 0
9.800000 0.300000 0
9.900000 0.300000 0
10.000000 0.300000 0
0.000000 0.400000 0
0.100000 0.400000 0
0.200000 0.400000 0
0.300000 0.400000 0
0.400000 0.400000 0
0.500000 0.400000 0
0.600000 0.400000 0
0.700000 0.400000 0
0.800000 0.400000 0
0.900000 0.400000 0
1.000000 0.400000 0
1.100000 0.400000 0
1.200000 0.400000 0
1.300000 0.400000 0
1.400000 0.400000 0
1.500000 0.400000 0
1.600000 0.400000 0
1.700000 0.400000 0
1.800000 0.400000 0
1.900000 0.400000 0
2.000000 0.400000 0
2.100000 0.400000 0
2.200000 0.400000 0
2.300000 0.400000 0
2.400000 0.400000 0
2.500000 0.400000 0
2.600000 0.400000 0
2.700000 0.400000 0
2.800000 0.400000 0
2.900000 0.400000 0
3.000000 0.400000 0
3.100000 0.400000 0
3.200000 0.400000 0
3.300000 0.400000 0
3.400000 0.400000 0
3.500000 0.400000 0
3.600000 0.400000 0
3.700000 0.400000 0
3.800000 0.400000 0
3.900000 0.400000 0
4.000000 0.400000 0
4.100000 0.400000 0
4.200000 0.400000 0
4.300000 0.400000 0
4.400000 0.400000 0
4.500000 0.400000 0
4.600000 0.400000 0
4.700000 0.400000 0
4.800000 0.400000 0
4.900000 0.400000 0
5.000000 0.400000 0
5.100000 0.400000 0
5.200000 0.400000 0
5.300000 0.400000 0
5.400000 0.400000 0
5.500000 0.400000 0
5.600000 0.400000 0
5.700000 0.400000 0
5.800000 0.400000 0
5.900000 0.400000 0
6.000000 0.400000 0
6.100000 0.400000 0
6.200000 0.400000 0
6.300000 0.400000 0
6.400000 0.400000 0
6.500000 0.400000 0
6.600000 0.400000 0
6.700000 0.400000 0
6.800000 0.400000 0
6.900000 0.400000 0
7.000000 0.400000 0
7.100000 0.400000 0
7.200000 0.400000 0
7.300000 0.400000 0
7.400000 0.400000 0
7.500000 0.400000 0
7.600000 0.400000 0
7.700000 0.400000 0
7.800000 0.400000 0
7.900000 0.400000 0
8.000000 0.400000 0
8.100000 0.400000 0
8.200000 0.400000 0
8.300000 0.400000 0
8.400000 0.400000 0
8.500000 0.400000 0
8.600000 0.400000 0
[...]
POINT_DATA 2121 

VECTORS velocity float
0.500000 0.000000 0
-0.000003 0.000000 0
-0.000011 0.000000 0
-0.000023 0.000000 0
-0.000037 0.000000 0
-0.000048 0.000000 0
-0.000055 0.000000 0
-0.000051 0.000000 0
-0.000030 0.000000 0
0.000013 0.000000 0
0.000084 0.000000 0
0.000186 0.000000 0
0.000316 0.000000 0
0.000467 0.000000 0
0.000622 0.000000 0
0.000758 0.000000 0
0.000848 0.000000 0
0.000868 0.000000 0
0.000797 0.000000 0
0.000619 0.000000 0
0.000327 0.000000 0
-0.000075 0.000000 0
-0.000573 0.000000 0
-0.001142 0.000000 0
-0.001741 0.000000 0
-0.002308 0.000000 0
-0.002735 0.000000 0
-0.002909 0.000000 0
-0.002744 0.000000 0
-0.002230 0.000000 0
-0.001450 0.000000 0
-0.000524 0.000000 0
0.000447 0.000000 0
0.001368 0.000000 0
0.002173 0.000000 0
0.002820 0.000000 0
0.003290 0.000000 0
0.003575 0.000000 0
0.003671 0.000000 0
0.003580 0.000000 0
0.003302 0.000000 0
0.002835 0.000000 0
0.002175 0.000000 0
0.001310 0.000000 0
0.000225 0.000000 0
-0.001051 0.000000 0
-0.002388 0.000000 0
-0.003689 0.000000 0
-0.004846 0.000000 0
-0.005729 0.000000 0
-0.006195 0.000000 0
-0.006115 0.000000 0
-0.005413 0.000000 0
-0.004119 0.000000 0
-0.002417 0.000000 0
-0.000609 0.000000 0
0.001114 0.000000 0
0.002657 0.000000 0
0.003940 0.000000 0
0.004904 0.000000 0
0.005521 0.000000 0
0.005787 0.000000 0
0.005718 0.000000 0
0.005335 0.000000 0
0.004662 0.000000 0
0.003725 0.000000 0
0.002560 0.000000 0
0.001229 0.000000 0
-0.000150 0.000000 0
-0.001361 0.000000 0
-0.002371 0.000000 0
-0.003208 0.000000 0
-0.003908 0.000000 0
-0.004494 0.000000 0
-0.004963 0.000000 0
-0.005276 0.000000 0
-0.005358 0.000000 0
-0.005106 0.000000 0
-0.004427 0.000000 0
-0.003292 0.000000 0
-0.001801 0.000000 0
-0.000156 0.000000 0
0.001511 0.000000 0
0.003116 0.000000 0
0.004548 0.000000 0
0.005690 0.000000 0
0.006426 0.000000 0
0.006655 0.000000 0
0.006320 0.000000 0
0.005440 0.000000 0
0.004137 0.000000 0
0.002622 0.000000 0
0.001138 0.000000 0
-0.000074 0.000000 0
-0.000865 0.000000 0
-0.001330 0.000000 0
-0.001581 0.000000 0
-0.001711 0.000000 0
-0.001791 0.000000 0
-0.001875 0.000000 0
-0.002085 0.000000 0
1.000000 0.000003 0
1.002640 -0.004808 0
1.010867 -0.010449 0
1.025110 -0.016605 0
1.045828 -0.023064 0
1.073311 -0.029438 0
1.107369 -0.035045 0
1.146907 -0.038942 0
1.189632 -0.040153 0
1.231903 -0.038270 0
1.270316 -0.033766 0
1.302648 -0.027539 0
1.327788 -0.020424 0
1.345340 -0.013031 0
1.355343 -0.005810 0
1.358184 0.000859 0
1.354588 0.006656 0
1.345579 0.011314 0
1.332456 0.014608 0
1.316726 0.016381 0
1.300018 0.016574 0
1.283968 0.015230 0
1.270108 0.012495 0
1.259771 0.008612 0
1.254002 0.003919 0
1.253451 -0.001066 0
1.258149 -0.005550 0
1.267218 -0.008607 0
1.278750 -0.009474 0
1.290077 -0.007853 0
1.298435 -0.004060 0
1.301689 0.001195 0
1.298718 0.007145 0
1.289301 0.013101 0
1.273872 0.018522 0
1.253296 0.023050 0
1.228673 0.026478 0
1.201212 0.028707 0
1.172163 0.029693 0
1.142785 0.029422 0
1.114340 0.027886 0
1.088087 0.025074 0
1.065275 0.020950 0
1.047123 0.015435 0
1.034779 0.008455 0
1.029249 0.000233 0
1.031343 -0.008563 0
1.041550 -0.017176 0
1.059837 -0.024894 0
1.085432 -0.030928 0
1.116735 -0.034453 0
1.151342 -0.034743 0
1.186127 -0.031364 0
1.217464 -0.024455 0
1.241729 -0.014949 0
1.256080 -0.004391 0
1.259245 0.005948 0
1.251697 0.015387 0
1.234731 0.023440 0
1.210091 0.029733 0
1.179787 0.034050 0
1.145941 0.036309 0
1.110667 0.036530 0
1.075987 0.034783 0
1.043780 0.031155 0
1.015712 0.025764 0
0.993136 0.018808 0
0.976948 0.010678 0
0.967492 0.002153 0
0.964631 -0.005683 0
0.967875 -0.012233 0
0.976519 -0.017556 0
0.989874 -0.021850 0
1.007337 -0.025274 0
1.028389 -0.027865 0
1.052506 -0.029474 0
1.078972 -0.029741 0
1.106653 -0.028158 0
1.133846 -0.024244 0
1.158285 -0.017848 0
1.177355 -0.009443 0
1.188542 -0.000004 0
1.190165 0.009619 0
1.182049 0.018874 0
1.164890 0.027180 0
1.140008 0.033883 0
1.109313 0.038320 0
1.075223 0.039889 0
1.040490 0.038194 0
1.007902 0.033258 0
0.979861 0.025677 0
0.957964 0.016589 0
0.942767 0.007422 0
0.933877 -0.000348 0
0.930331 -0.005805 0
0.930881 -0.009044 0
0.934161 -0.010600 0
0.938978 -0.010844 0
0.944328 -0.009898 0
0.949251 -0.006438 0
0.951214 -0.003960 0
1.000000 0.000006 0
1.002958 -0.010881 0
1.011641 -0.022479 0
1.026436 -0.034970 0
1.048026 -0.048211 0
1.077138 -0.061551 0
1.114139 -0.073606 0
1.158341 -0.082274 0
1.207425 -0.085005 0
1.255583 -0.080694 0
1.298119 -0.070755 0
1.332896 -0.057482 0
1.359387 -0.042701 0
1.377647 -0.027564 0
1.387881 -0.012853 0
1.390520 0.000747 0
1.386333 0.012596 0
1.376384 0.022123 0
1.362055 0.028845 0
1.344981 0.032430 0
1.326931 0.032751 0
1.309681 0.029902 0
1.294886 0.024189 0
1.283979 0.016098 0
1.278145 0.006312 0
1.278311 -0.004155 0
1.284877 -0.013775 0
1.297161 -0.020610 0
1.313011 -0.022868 0
1.329043 -0.019695 0
1.341569 -0.011621 0
1.347827 -0.000293 0
1.346738 0.012379 0
1.338393 0.024836 0
1.323555 0.035995 0
1.303343 0.045190 0
1.279013 0.052075 0
1.251839 0.056501 0
1.223064 0.058417 0
1.193902 0.057813 0
1.165541 0.054689 0
1.139143 0.049057 0
1.115814 0.040955 0
1.096555 0.030487 0
1.082187 0.017866 0
1.073353 0.003428 0
1.070756 -0.012310 0
1.075151 -0.028503 0
1.086941 -0.043890 0
1.105962 -0.056906 0
1.131516 -0.065918 0
1.162405 -0.069400 0
1.196740 -0.066131 0
1.231678 -0.055611 0
1.263390 -0.038625 0
1.287557 -0.017524 0
1.300609 0.004374 0
1.301621 0.024504 0
1.291975 0.041597 0
1.273583 0.054935 0
1.248597 0.064140 0
1.219228 0.069111 0
1.187614 0.069945 0
1.155716 0.066877 0
1.125234 0.060266 0
1.097511 0.050635 0
1.073448 0.038756 0
1.053479 0.025636 0
1.037654 0.012309 0
1.025979 -0.000391 0
1.018624 -0.011895 0
1.015548 -0.022004 0
1.016613 -0.030823 0
1.021761 -0.038519 0
1.031117 -0.045173 0
1.044921 -0.050586 0
1.063270 -0.054149 0
1.085803 -0.054876 0
1.111490 -0.051633 0
1.138573 -0.043509 0
1.164582 -0.030257 0
1.186452 -0.012810 0
1.201095 0.006494 0
1.206664 0.025276 0
1.203366 0.042042 0
1.192211 0.055578 0
1.174722 0.064786 0
1.152736 0.068824 0
1.128174 0.067322 0
1.102799 0.060630 0
1.078034 0.049940 0
1.054891 0.037094 0
1.034017 0.024087 0
1.015819 0.012437 0
1.000685 0.002996 0
0.988738 -0.003830 0
0.979656 -0.008098 0
0.972915 -0.010168 0
0.968056 -0.010274 0
0.964791 -0.006887 0
0.963173 -0.004424 0
1.000000 0.000010 0
1.002555 -0.016458 0
1.010408 -0.033930 0
1.024233 -0.052994 0
1.045215 -0.073771 0
1.074935 -0.095555 0
1.114990 -0.116251 0
1.165852 -0.132232 0
1.226307 -0.137399 0
1.283663 -0.128968 0
1.330800 -0.111083 0
1.366895 -0.088811 0
1.393184 -0.065178 0
1.410681 -0.041528 0
1.419700 -0.018686 0
1.420515 0.002404 0
1.413815 0.020789 0
1.400680 0.035589 0
1.382641 0.046007 0
1.361562 0.051503 0
1.339478 0.051871 0
1.318432 0.047271 0
1.300290 0.038193 0
1.286620 0.025349 0
1.278721 0.009584 0
1.277884 -0.007801 0
1.285267 -0.024404 0
1.300699 -0.036745 0
1.321859 -0.041360 0
1.344394 -0.036414 0
1.362996 -0.022848 0
1.373372 -0.003978 0
1.374101 0.016575 0
1.365977 0.036280 0
1.350433 0.053568 0
1.329102 0.067587 0
1.303535 0.077979 0
1.275111 0.084653 0
1.245056 0.087626 0
1.214496 0.086941 0
1.184495 0.082642 0
1.156077 0.074798 0
1.130213 0.063534 0
1.107779 0.049059 0
1.089489 0.031653 0
1.075840 0.011662 0
1.067109 -0.010364 0
1.063573 -0.033364 0
1.065573 -0.055708 0
1.073476 -0.075506 0
1.087849 -0.090900 0
1.109342 -0.099971 0
1.137953 -0.100641 0
1.172266 -0.091108 0
1.209105 -0.070833 0
1.243725 -0.041614 0
1.270599 -0.008121 0
1.285261 0.024017 0
1.287467 0.051474 0
1.279155 0.073107 0
1.262539 0.088401 0
1.239884 0.097288 0
1.213335 0.100038 0
1.184802 0.097158 0
1.155879 0.089357 0
1.127800 0.077547 0
1.101458 0.062837 0
1.077464 0.046469 0
1.056198 0.029651 0
1.037760 0.013345 0
1.022003 -0.001805 0
1.008766 -0.015547 0
0.998180 -0.028064 0
0.991005 -0.039780 0
0.988438 -0.051026 0
0.991755 -0.061628 0
1.001754 -0.070624 0
1.018367 -0.076379 0
1.040647 -0.077015 0
1.066990 -0.070942 0
1.095350 -0.057323 0
1.123347 -0.036518 0
1.148177 -0.010594 0
1.166687 0.016602 0
1.177200 0.041632 0
1.179923 0.062526 0
1.175627 0.077794 0
1.165390 0.086435 0
1.150380 0.088128 0
1.131713 0.083396 0
1.110438 0.073584 0
1.087595 0.060603 0
1.064255 0.046490 0
1.041408 0.032982 0
1.019730 0.021274 0
0.999610 0.011982 0
0.981365 0.005220 0
0.965310 0.000752 0
0.951907 -0.001777 0
0.941807 -0.001558 0
0.937101 -0.001367 0
1.000000 0.000014 0
1.002018 -0.021297 0
1.008388 -0.044161 0
1.020069 -0.069781 0
1.038861 -0.098917 0
1.067586 -0.131330 0
1.110075 -0.164526 0
1.169723 -0.193594 0
1.251101 -0.202820 0
1.320035 -0.185190 0
1.368247 -0.153991 0
1.400966 -0.119869 0
1.423572 -0.086491 0
1.438642 -0.054084 0
1.446046 -0.022690 0
1.444902 0.006629 0
1.435247 0.032428 0
1.418055 0.053293 0
1.395052 0.067960 0
1.368433 0.075590 0
1.340635 0.075877 0
1.314103 0.069087 0
1.291018 0.055997 0
1.273030 0.037663 0
1.261229 0.015045 0
1.256555 -0.010704 0
1.261002 -0.036594 0
1.275815 -0.057206 0
1.299697 -0.066567 0
1.328771 -0.060835 0
1.356760 -0.040604 0
1.376306 -0.011402 0
1.382623 0.019769 0
1.376883 0.048501 0
1.361838 0.072866 0
1.340040 0.092084 0
1.313538 0.106063 0
1.283914 0.114976 0
1.252423 0.119028 0
1.220137 0.118371 0
1.188048 0.113105 0
1.157124 0.103336 0
1.128309 0.089250 0
1.102435 0.071208 0
1.079971 0.049802 0
1.060677 0.025805 0
1.043520 -0.000046 0
1.027420 -0.026970 0
1.012915 -0.053797 0
1.002550 -0.079187 0
0.999699 -0.101788 0
1.007479 -0.119508 0
1.027183 -0.129058 0
1.057849 -0.126767 0
1.096636 -0.110088 0
1.139229 -0.079021 0
1.180049 -0.037166 0
1.212591 0.007632 0
1.231996 0.047698 0
1.238890 0.079858 0
1.235256 0.103407 0
1.223265 0.118311 0
1.205043 0.125023 0
1.182529 0.124330 0
1.157394 0.117264 0
1.131007 0.105053 0
1.104438 0.089090 0
1.078427 0.070893 0
1.053315 0.052010 0
1.029006 0.033802 0
1.005164 0.017098 0
0.981837 0.001817 0
0.960004 -0.013064 0
0.941747 -0.028779 0
0.929812 -0.045924 0
0.926262 -0.063903 0
0.931664 -0.080762 0
0.945258 -0.093770 0
0.965549 -0.100257 0
0.990781 -0.098213 0
1.019159 -0.086615 0
1.048897 -0.065638 0
1.078092 -0.036848 0
1.104350 -0.003749 0
1.124675 0.028804 0
1.137898 0.057149 0
1.144017 0.079316 0
1.143423 0.094068 0
1.136717 0.100996 0
1.124620 0.100569 0
1.107961 0.094054 0
1.087691 0.083273 0
1.064827 0.070270 0
1.040326 0.056958 0
1.015011 0.044790 0
0.989651 0.034531 0
0.965170 0.026197 0
0.942805 0.019285 0
0.924009 0.013225 0
0.910174 0.007915 0
0.903748 0.004211 0
1.000000 0.000018 0
1.001181 -0.024854 0
1.005056 -0.051985 0
1.012684 -0.083470 0
1.026280 -0.121291 0
1.049940 -0.166773 0
1.090735 -0.218393 0
1.158370 -0.273261 0
1.275837 -0.287714 0
1.349194 -0.246117 0
1.383086 -0.192017 0
1.399955 -0.144139 0
1.411218 -0.102857 0
1.420957 -0.064005 0
1.427466 -0.024949 0
1.426038 0.013199 0
1.414827 0.047634 0
1.394519 0.075781 0
1.367006 0.095625 0
1.334783 0.105917 0
1.300688 0.106198 0
1.267662 0.096885 0
1.238256 0.079262 0
1.214013 0.055135 0
1.195269 0.026056 0
1.181550 -0.007578 0
1.173478 -0.043668 0
1.175810 -0.075445 0
1.191102 -0.094320 0
1.219390 -0.093481 0
1.256516 -0.070387 0
1.293375 -0.029845 0
1.318366 0.015994 0
1.326113 0.057060 0
1.320861 0.090408 0
1.306445 0.115884 0
1.285561 0.134101 0
1.260060 0.145764 0
1.231301 0.151400 0
1.200403 0.151312 0
1.168395 0.145652 0
1.136282 0.134534 0
1.105042 0.118220 0
1.075408 0.097392 0
1.047302 0.073408 0
1.019198 0.048110 0
0.988591 0.022890 0
0.954315 -0.002763 0
0.919105 -0.030842 0
0.890027 -0.062294 0
0.874599 -0.095833 0
0.875584 -0.127459 0
0.891937 -0.151015 0
0.921076 -0.160565 0
0.959980 -0.152216 0
1.005330 -0.125030 0
1.053258 -0.081486 0
1.098882 -0.027934 0
1.135550 0.025170 0
1.159382 0.069843 0
1.171314 0.104022 0
1.172956 0.127497 0
1.166111 0.140771 0
1.152569 0.144805 0
1.133968 0.140876 0
1.111698 0.130499 0
1.086789 0.115414 0
1.059775 0.097588 0
1.030666 0.079069 0
0.999308 0.061494 0
0.966204 0.045361 0
0.933310 0.029610 0
0.903921 0.012024 0
0.881501 -0.009590 0
0.868472 -0.035544 0
0.865535 -0.063481 0
0.871711 -0.089621 0
0.885298 -0.110266 0
0.904606 -0.122540 0
0.928181 -0.124554 0
0.954755 -0.115442 0
0.983130 -0.095454 0
1.012069 -0.066049 0
1.040154 -0.029984 0
1.065156 0.008080 0
1.084567 0.043181 0
1.097575 0.072265 0
1.103938 0.093730 0
1.103752 0.106927 0
1.097352 0.112148 0
1.085254 0.110508 0
1.068114 0.103732 0
1.046679 0.093850 0
1.021786 0.082792 0
0.994459 0.071944 0
0.966076 0.061817 0
0.938441 0.052060 0
0.913604 0.041908 0
0.893482 0.030847 0
0.879461 0.018696 0
0.872848 0.010551 0
1.000000 0.000021 0
0.999991 -0.026361 0
1.000176 -0.055667 0
1.001308 -0.091009 0
1.005253 -0.136177 0
1.016301 -0.195788 0
1.044139 -0.272960 0
1.108473 -0.378699 0
1.274115 -0.393647 0
1.320721 -0.292443 0
1.306706 -0.204756 0
1.288635 -0.148003 0
1.277661 -0.107495 0
1.277823 -0.070335 0
1.286292 -0.027774 0
1.290803 0.019264 0
1.283757 0.063944 0
1.265719 0.101112 0
1.238475 0.127693 0
1.204330 0.141905 0
1.166113 0.142995 0
1.127138 0.131516 0
1.090235 0.109643 0
1.055901 0.080646 0
1.022264 0.047503 0
0.988312 0.011084 0
0.956091 -0.030857 0
0.933893 -0.074833 0
0.933750 -0.110151 0
0.958505 -0.126253 0
1.004099 -0.114593 0
1.062061 -0.073257 0
1.119741 -0.012972 0
1.162145 0.046002 0
1.184929 0.092530 0
1.193478 0.127380 0
1.191319 0.152444 0
1.180673 0.169232 0
1.163171 0.178681 0
1.140184 0.181274 0
1.112924 0.177223 0
1.082343 0.166685 0
1.048758 0.150121 0
1.011309 0.128945 0
0.968114 0.106008 0
0.918214 0.084512 0
0.864489 0.064833 0
0.814222 0.042512 0
0.775554 0.010488 0
0.753555 -0.034684 0
0.748682 -0.087349 0
0.757949 -0.136850 0
0.778123 -0.174554 0
0.807105 -0.194813 0
0.843582 -0.194346 0
0.886190 -0.172304 0
0.932963 -0.130723 0
0.981114 -0.074664 0
1.026493 -0.012806 0
1.062710 0.044090 0
1.087586 0.089830 0
1.101688 0.123511 0
1.106093 0.145406 0
1.102083 0.156470 0
1.090923 0.158131 0
1.073652 0.152228 0
1.050890 0.141009 0
1.022806 0.127013 0
0.989510 0.112474 0
0.951974 0.098261 0
0.912939 0.083093 0
0.876838 0.064098 0
0.848372 0.038743 0
0.830523 0.006667 0
0.823424 -0.029960 0
0.825261 -0.067145 0
0.833772 -0.100528 0
0.847187 -0.126668 0
0.864387 -0.143143 0
0.884691 -0.148366 0
0.907562 -0.141567 0
0.932383 -0.122956 0
0.958362 -0.093876 0
0.984513 -0.056840 0
1.009566 -0.015613 0
1.031211 0.024725 0
1.047707 0.059940 0
1.058278 0.087885 0
1.062558 0.107575 0
1.060475 0.119061 0
1.052175 0.123286 0
1.037986 0.121841 0
1.018458 0.116592 0
0.994483 0.109171 0
0.967469 0.100493 0
0.939395 0.090542 0
0.912603 0.078662 0
0.889338 0.064236 0
0.871257 0.047360 0
0.859170 0.028543 0
0.853329 0.016404 0
1.000000 0.000025 0
0.998547 -0.025038 0
0.994142 -0.053306 0
0.986659 -0.088550 0
0.976257 -0.136287 0
0.964456 -0.205664 0
0.957608 -0.310568 0
0.977765 -0.503241 0
1.136968 -0.499966 0
1.119588 -0.278711 0
1.011180 -0.159934 0
0.948946 -0.115097 0
0.910332 -0.092049 0
0.899744 -0.072639 0
0.916270 -0.037932 0
0.942868 0.015731 0
0.956011 0.072715 0
0.955651 0.121060 0
0.941788 0.157011 0
0.913988 0.178275 0
0.872177 0.183387 0
0.817193 0.172760 0
0.752062 0.150496 0
0.683549 0.123102 0
0.621724 0.093642 0
0.576881 0.058592 0
0.556108 0.010747 0
0.558996 -0.053107 0
0.582696 -0.118936 0
0.624853 -0.163834 0
0.683155 -0.173946 0
0.754891 -0.145491 0
0.835292 -0.084094 0
0.913451 -0.008131 0
0.974170 0.059071 0
1.014448 0.109490 0
1.038908 0.146902 0
1.050085 0.173908 0
1.049709 0.191886 0
1.039187 0.201556 0
1.019517 0.203489 0
0.990921 0.198696 0
0.952530 0.189250 0
0.902981 0.178033 0
0.842863 0.166499 0
0.777949 0.151732 0
0.719416 0.126879 0
0.678722 0.086167 0
0.661160 0.029821 0
0.663257 -0.035425 0
0.676114 -0.100231 0
0.693774 -0.156904 0
0.714333 -0.200174 0
0.738311 -0.226028 0
0.767051 -0.231305 0
0.801437 -0.214416 0
0.841119 -0.176414 0
0.884436 -0.121468 0
0.928754 -0.056430 0
0.969671 0.008746 0
1.001948 0.065040 0
1.024497 0.108987 0
1.037388 0.140372 0
1.041118 0.159970 0
1.036276 0.169304 0
1.023308 0.170529 0
1.002454 0.166257 0
0.974086 0.158965 0
0.939516 0.149898 0
0.901805 0.138062 0
0.865663 0.120494 0
0.836008 0.094174 0
0.816066 0.058336 0
0.806439 0.015355 0
0.805570 -0.030285 0
0.810744 -0.073832 0
0.819707 -0.111550 0
0.831151 -0.140884 0
0.844574 -0.160048 0
0.859972 -0.167732 0
0.877486 -0.163137 0
0.897088 -0.146258 0
0.918404 -0.118184 0
0.940710 -0.081194 0
0.963013 -0.038624 0
0.983859 0.005034 0
1.001101 0.045192 0
1.013515 0.078872 0
1.020343 0.104723 0
1.021154 0.122524 0
1.015787 0.132989 0
1.004373 0.137441 0
0.987447 0.137345 0
0.966112 0.133772 0
0.942102 0.127023 0
0.917632 0.116673 0
0.894967 0.102107 0
0.875927 0.083245 0
0.861560 0.061007 0
0.852122 0.036616 0
0.847507 0.021241 0
1.000000 0.000027 0
0.997147 -0.020511 0
0.988210 -0.043782 0
0.971838 -0.073127 0
0.945382 -0.113978 0
0.904081 -0.177143 0
0.839265 -0.286273 0
0.735836 -0.558063 0
0.550879 -0.535473 0
-0.000348 -0.166659 0
0.394288 -0.034117 0
0.318354 -0.047158 0
0.311180 -0.058297 0
0.341960 -0.076276 0
0.385373 -0.070901 0
0.439444 -0.020480 0
0.486393 0.051158 0
0.514342 0.115331 0
0.522202 0.169354 0
0.506638 0.211513 0
0.466281 0.239786 0
0.404160 0.251627 0
0.331245 0.243284 0
0.264668 0.210980 0
0.222064 0.154167 0
0.214270 0.076696 0
0.240424 -0.012976 0
0.286442 -0.101425 0
0.337324 -0.176012 0
0.389709 -0.226716 0
0.446783 -0.244635 0
0.512702 -0.225398 0
0.589248 -0.171536 0
0.674144 -0.092879 0
0.756425 -0.008472 0
0.821774 0.062638 0
0.867980 0.116804 0
0.897716 0.158428 0
0.912265 0.189575 0
0.912423 0.211462 0
0.898470 0.225486 0
0.870225 0.233669 0
0.827941 0.238057 0
0.774487 0.238608 0
0.717512 0.231037 0
0.668431 0.207956 0
0.637211 0.164057 0
0.627174 0.100764 0
0.634537 0.025949 0
0.651375 -0.049642 0
0.670102 -0.117869 0
0.687034 -0.175073 0
0.701663 -0.219094 0
0.715660 -0.247535 0
0.731910 -0.257476 0
0.753254 -0.246376 0
0.781167 -0.213725 0
0.815102 -0.162303 0
0.852862 -0.098045 0
0.891340 -0.029109 0
0.925496 0.035000 0
0.951947 0.088067 0
0.969674 0.128782 0
0.978323 0.157578 0
0.977796 0.175937 0
0.968114 0.186046 0
0.949634 0.190228 0
0.923644 0.189948 0
0.893012 0.184752 0
0.862161 0.172110 0
0.835892 0.148887 0
0.817606 0.113693 0
0.808239 0.068309 0
0.806595 0.017160 0
0.810481 -0.034268 0
0.817488 -0.081286 0
0.825841 -0.120939 0
0.834585 -0.151539 0
0.843539 -0.171968 0
0.853134 -0.181282 0
0.864105 -0.178688 0
0.877094 -0.163879 0
0.892298 -0.137503 0
0.909347 -0.101454 0
0.927403 -0.058769 0
0.945313 -0.013370 0
0.961272 0.030277 0
0.973685 0.068635 0
0.981507 0.099928 0
0.984056 0.123609 0
0.980995 0.140059 0
0.972405 0.150172 0
0.958911 0.154843 0
0.941774 0.154506 0
0.922798 0.148963 0
0.904005 0.137668 0
0.887179 0.120357 0
0.873495 0.097633 0
0.863429 0.071154 0
0.856901 0.042585 0
0.853765 0.024781 0
1.000000 0.000028 0
0.996190 -0.013256 0
0.984147 -0.028000 0
0.961669 -0.045725 0
0.924132 -0.068533 0
0.862271 -0.099550 0
0.756317 -0.142327 0
0.562964 -0.214858 0
0.073715 0.000346 0
-0.529612 0.132015 0
0.000000 0.000054 0
-0.034092 -0.043307 0
-0.057006 -0.115658 0
-0.027025 -0.146834 0
-0.012135 -0.135419 0
0.015465 -0.085292 0
0.066555 -0.002187 0
0.114690 0.085249 0
0.143233 0.164713 0
0.146858 0.234193 0
0.127457 0.285862 0
0.096222 0.307792 0
0.072800 0.289985 0
0.070332 0.232279 0
0.093781 0.144036 0
0.139267 0.040228 0
0.191253 -0.061428 0
0.238066 -0.150011 0
0.276872 -0.222207 0
0.309505 -0.273296 0
0.341899 -0.296943 0
0.381534 -0.287960 0
0.433965 -0.245540 0
0.500159 -0.175312 0
0.575918 -0.088563 0
0.649061 -0.002068 0
0.706741 0.070957 0
0.747032 0.129619 0
0.770468 0.177175 0
0.777234 0.215347 0
0.767606 0.245684 0
0.742877 0.269223 0
0.706916 0.284985 0
0.667426 0.288459 0
0.634818 0.272552 0
0.617964 0.232029 0
0.619831 0.168132 0
0.636992 0.088837 0
0.662623 0.005617 0
0.688378 -0.070993 0
0.709552 -0.135894 0
0.724190 -0.188469 0
0.732209 -0.228804 0
0.735362 -0.256278 0
0.737136 -0.268903 0
0.741966 -0.263677 0
0.753634 -0.238266 0
0.773647 -0.193167 0
0.800774 -0.132672 0
0.831951 -0.063892 0
0.863122 0.004428 0
0.889403 0.064806 0
0.908566 0.113993 0
0.919497 0.151844 0
0.921637 0.179509 0
0.914976 0.198688 0