# vtk DataFile Version 2.0
generated by CFD-lab course output (written by Tobias Neckel) 
ASCII

DATASET STRUCTURED_GRID
DIMENSIONS  101 21 1 
POINTS 2121 float

0.000000 0.000000 0
0.100000 0.000000 0
0.200000 0.000000 0
0.300000 0.000000 0
0.400000 0.000000 0
0.500000 0.000000 0
0.600000 0.000000 0
0.700000 0.000000 0
0.800000 0.000000 0
0.900000 0.000000 0
1.000000 0.000000 0
1.100000 0.000000 0
1.200000 0.000000 0
1.300000 0.000000 0
1.400000 0.000000 0
1.500000 0.000000 0
1.600000 0.000000 0
1.700000 0.000000 0
1.800000 0.000000 0
1.900000 0.000000 0
2.000000 0.000000 0
2.100000 0.000000 0
2.200000 0.000000 0
2.300000 0.000000 0
2.400000 0.000000 0
2.500000 0.000000 0
2.600000 0.000000 0
2.700000 0.000000 0
2.800000 0.000000 0
2.900000 0.000000 0
3.000000 0.000000 0
3.100000 0.000000 0
3.200000 0.000000 0
3.300000 0.000000 0
3.400000 0.000000 0
3.500000 0.000000 0
3.600000 0.000000 0
3.700000 0.000000 0
3.800000 0.000000 0
3.900000 0.000000 0
4.000000 0.000000 0
4.100000 0.000000 0
4.200000 0.000000 0
4.300000 0.000000 0
4.400000 0.000000 0
4.500000 0.000000 0
4.600000 0.000000 0
4.700000 0.000000 0
4.800000 0.000000 0
4.900000 0.000000 0
5.000000 0.000000 0
5.100000 0.000000 0
5.200000 0.000000 0
5.300000 0.000000 0
5.400000 0.000000 0
5.500000 0.000000 0
5.600000 0.000000 0
5.700000 0.000000 0
5.800000 0.000000 0
5.900000 0.000000 0
6.000000 0.000000 0
6.100000 0.000000 0
6.200000 0.000000 0
6.300000 0.000000 0
6.400000 0.000000 0
6.500000 0.000000 0
6.600000 0.000000 0
6.700000 0.000000 0
6.800000 0.000000 0
6.900000 0.000000 0
7.000000 0.000000 0
7.100000 0.000000 0
7.200000 0.000000 0
7.300000 0.000000 0
7.400000 0.000000 0
7.500000 0.000000 0
7.600000 0.000000 0
7.700000 0.000000 0
7.800000 0.000000 0
7.900000 0.000000 0
8.000000 0.000000 0
8.100000 0.000000 0
8.200000 0.000000 0
8.300000 0.000000 0
8.400000 0.000000 0
8.500000 0.000000 0
8.600000 0.000000 0
8.700000 0.000000 0
8.800000 0.000000 0
8.900000 0.000000 0
9.000000 0.000000 0
9.100000 0.000000 0
9.200000 0.000000 0
9.300000 0.000000 0
9.400000 0.000000 0
9.500000 0.000000 0
9.600000 0.000000 0
9.700000 0.000000 0
9.800000 0.000000 0
9.900000 0.000000 0
10.000000 0.000000 0
0.000000 0.100000 0
0.100000 0.100000 0
0.200000 0.100000 0
0.300000 0.100000 0
0.400000 0.100000 0
0.500000 0.100000 0
0.600000 0.100000 0
0.700000 0.100000 0
0.800000 0.100000 0
0.900000 0.100000 0
1.000000 0.100000 0
1.100000 0.100000 0
1.200000 0.100000 0
1.300000 0.100000 0
1.400000 0.100000 0
1.500000 0.100000 0
1.600000 0.100000 0
1.700000 0.100000 0
1.800000 0.100000 0
1.900000 0.100000 0
2.000000 0.100000 0
2.100000 0.100000 0
2.200000 0.100000 0
2.300000 0.100000 0
2.400000 0.100000 0
2.500000 0.100000 0
2.600000 0.100000 0
2.700000 0.100000 0
2.800000 0.100000 0
2.900000 0.100000 0
3.000000 0.100000 0
3.100000 0.100000 0
3.200000 0.100000 0
3.300000 0.100000 0
3.400000 0.100000 0
3.500000 0.100000 0
3.600000 0.100000 0
3.700000 0.100000 0
3.800000 0.100000 0
3.900000 0.100000 0
4.000000 0.100000 0
4.100000 0.100000 0
4.200000 0.100000 0
4.300000 0.100000 0
4.400000 0.100000 0
4.500000 0.100000 0
4.600000 0.100000 0
4.700000 0.100000 0
4.800000 0.100000 0
4.900000 0.100000 0
5.000000 0.100000 0
5.100000 0.100000 0
5.200000 0.100000 0
5.300000 0.100000 0
5.400000 0.100000 0
5.500000 0.100000 0
5.600000 0.100000 0
5.700000 0.100000 0
5.800000 0.100000 0
5.900000 0.100000 0
6.000000 0.100000 0
6.100000 0.100000 0
6.200000 0.100000 0
6.300000 0.100000 0
6.400000 0.100000 0
6.500000 0.100000 0
6.600000 0.100000 0
6.700000 0.100000 0
6.800000 0.100000 0
6.900000 0.100000 0
7.000000 0.100000 0
7.100000 0.100000 0
7.200000 0.100000 0
7.300000 0.100000 0
7.400000 0.100000 0
7.500000 0.100000 0
7.600000 0.100000 0
7.700000 0.100000 0
7.800000 0.100000 0
7.900000 0.100000 0
8.000000 0.100000 0
8.100000 0.100000 0
8.200000 0.100000 0
8.300000 0.100000 0
8.400000 0.100000 0
8.500000 0.100000 0
8.600000 0.100000 0
8.700000 0.100000 0
8.800000 0.100000 0
8.900000 0.100000 0
9.000000 0.100000 0
9.100000 0.100000 0
9.200000 0.100000 0
9.300000 0.100000 0
9.400000 0.100000 0
9.500000 0.100000 0
9.600000 0.100000 0
9.700000 0.100000 0
9.800000 0.100000 0
9.900000 0.100000 0
10.000000 0.100000 0
0.000000 0.200000 0
0.100000 0.200000 0
0.200000 0.200000 0
0.300000 0.200000 0
0.400000 0.200000 0
0.500000 0.200000 0
0.600000 0.200000 0
0.700000 0.200000 0
0.800000 0.200000 0
0.900000 0.200000 0
1.000000 0.200000 0
1.100000 0.200000 0
1.200000 0.200000 0
1.300000 0.200000 0
1.400000 0.200000 0
1.500000 0.200000 0
1.600000 0.200000 0
1.700000 0.200000 0
1.800000 0.200000 0
1.900000 0.200000 0
2.000000 0.200000 0
2.100000 0.200000 0
2.200000 0.200000 0
2.300000 0.200000 0
2.400000 0.200000 0
2.500000 0.200000 0
2.600000 0.200000 0
2.700000 0.200000 0
2.800000 0.200000 0
2.900000 0.200000 0
3.000000 0.200000 0
3.100000 0.200000 0
3.200000 0.200000 0
3.300000 0.200000 0
3.400000 0.200000 0
3.500000 0.200000 0
3.600000 0.200000 0
3.700000 0.200000 0
3.800000 0.200000 0
3.900000 0.200000 0
4.000000 0.200000 0
4.100000 0.200000 0
4.200000 0.200000 0
4.300000 0.200000 0
4.400000 0.200000 0
4.500000 0.200000 0
4.600000 0.200000 0
4.700000 0.200000 0
4.800000 0.200000 0
4.900000 0.200000 0
5.000000 0.200000 0
5.100000 0.200000 0
5.200000 0.200000 0
5.300000 0.200000 0
5.400000 0.200000 0
5.500000 0.200000 0
5.600000 0.200000 0
5.700000 0.200000 0
5.800000 0.200000 0
5.900000 0.200000 0
6.000000 0.200000 0
6.100000 0.200000 0
6.200000 0.200000 0
6.300000 0.200000 0
6.400000 0.200000 0
6.500000 0.200000 0
6.600000 0.200000 0
6.700000 0.200000 0
6.800000 0.200000 0
6.900000 0.200000 0
7.000000 0.200000 0
7.100000 0.200000 0
7.200000 0.200000 0
7.300000 0.200000 0
7.400000 0.200000 0
7.500000 0.200000 0
7.600000 0.200000 0
7.700000 0.200000 0
7.800000 0.200000 0
7.900000 0.200000 0
8.000000 0.200000 0
8.100000 0.200000 0
8.200000 0.200000 0
8.300000 0.200000 0
8.400000 0.200000 0
8.500000 0.200000 0
8.600000 0.200000 0
8.700000 0.200000 0
8.800000 0.200000 0
8.900000 0.200000 0
9.000000 0.200000 0
9.100000 0.200000 0
9.200000 0.200000 0
9.300000 0.200000 0
9.400000 0.200000 0
9.500000 0.200000 0
9.600000 0.200000 0
9.700000 0.200000 0
9.800000 0.200000 0
9.900000 0.200000 0
10.000000 0.200000 0
0.000000 0.300000 0
0.100000 0.300000 0
0.200000 0.300000 0
0.300000 0.300000 0
0.400000 0.300000 0
0.500000 0.300000 0
0.600000 0.300000 0
0.700000 0.300000 0
0.800000 0.300000 0
0.900000 0.300000 0
1.000000 0.300000 0
1.100000 0.300000 0
1.200000 0.300000 0
1.300000 0.300000 0
1.400000 0.300000 0
1.500000 0.300000 0
1.600000 0.300000 0
1.700000 0.300000 0
1.800000 0.300000 0
1.900000 0.300000 0
2.000000 0.300000 0
2.100000 0.300000 0
2.200000 0.300000 0
2.300000 0.300000 0
2.400000 0.300000 0
2.500000 0.300000 0
2.600000 0.300000 0
2.700000 0.300000 0
2.800000 0.300000 0
2.900000 0.300000 0
3.000000 0.300000 0
3.100000 0.300000 0
3.200000 0.300000 0
3.300000 0.300000 0
3.400000 0.300000 0
3.500000 0.300000 0
3.600000 0.300000 0
3.700000 0.300000 0
3.800000 0.300000 0
3.900000 0.300000 0
4.000000 0.300000 0
4.100000 0.300000 0
4.200000 0.300000 0
4.300000 0.300000 0
4.400000 0.300000 0
4.500000 0.300000 0
4.600000 0.300000 0
4.700000 0.300000 0
4.800000 0.300000 0
4.900000 0.300000 0
5.000000 0.300000 0
5.100000 0.300000 0
5.200000 0.300000 0
5.300000 0.300000 0
5.400000 0.300000 0
5.500000 0.300000 0
5.600000 0.300000 0
5.700000 0.300000 0
5.800000 0.300000 0
5.900000 0.300000 0
6.000000 0.300000 0
6.100000 0.300000 0
6.200000 0.300000 0
6.300000 0.300000 0
6.400000 0.300000 0
6.500000 0.300000 0
6.600000 0.300000 0
6.700000 0.300000 0
6.800000 0.300000 0
6.900000 0.300000 0
7.000000 0.300000 0
7.100000 0.300000 0
7.200000 0.300000 0
7.300000 0.300000 0
7.400000 0.300000 0
7.500000 0.300000 0
7.600000 0.300000 0
7.700000 0.300000 0
7.800000 0.300000 0
7.900000 0.300000 0
8.000000 0.300000 0
8.100000 0.300000 0
8.200000 0.300000 0
8.300000 0.300000 0
8.400000 0.300000 0
8.500000 0.300000 0
8.600000 0.300000 0
8.700000 0.300000 0
8.800000 0.300000 0
8.900000 0.300000 0
9.000000 0.300000 0
9.100000 0.300000 0
9.200000 0.300000 0
9.300000 0.300000 0
9.400000 0.300000 0
9.500000 0.300000 0
9.600000 0.300000 0
9.700000 0.300000 0
9.800000 0.300000 0
9.900000 0.300000 0
10.000000 0.300000 0
0.000000 0.400000 0
0.100000 0.400000 0
0.200000 0.400000 0
0.300000 0.400000 0
0.400000 0.400000 0
0.500000 0.400000 0
0.600000 0.400000 0
0.700000 0.400000 0
0.800000 0.400000 0
0.900000 0.400000 0
1.000000 0.400000 0
1.100000 0.400000 0
1.200000 0.400000 0
1.300000 0.400000 0
1.400000 0.400000 0
1.500000 0.400000 0
1.600000 0.400000 0
1.700000 0.400000 0
1.800000 0.400000 0
1.900000 0.400000 0
2.000000 0.400000 0
2.100000 0.400000 0
2.200000 0.400000 0
2.300000 0.400000 0
2.400000 0.400000 0
2.500000 0.400000 0
2.600000 0.400000 0
2.700000 0.400000 0
2.800000 0.400000 0
2.900000 0.400000 0
3.000000 0.400000 0
3.100000 0.400000 0
3.200000 0.400000 0
3.300000 0.400000 0
3.400000 0.400000 0
3.500000 0.400000 0
3.600000 0.400000 0
3.700000 0.400000 0
3.800000 0.400000 0
3.900000 0.400000 0
4.000000 0.400000 0
4.100000 0.400000 0
4.200000 0.400000 0
4.300000 0.400000 0
4.400000 0.400000 0
4.500000 0.400000 0
4.600000 0.400000 0
4.700000 0.400000 0
4.800000 0.400000 0
4.900000 0.400000 0
5.000000 0.400000 0
5.100000 0.400000 0
5.200000 0.400000 0
5.300000 0.400000 0
5.400000 0.400000 0
5.500000 0.400000 0
5.600000 0.400000 0
5.700000 0.400000 0
5.800000 0.400000 0
5.900000 0.400000 0
6.000000 0.400000 0
6.100000 0.400000 0
6.200000 0.400000 0
6.300000 0.400000 0
6.400000 0.400000 0
6.500000 0.400000 0
6.600000 0.400000 0
6.700000 0.400000 0
6.800000 0.400000 0
6.900000 0.400000 0
7.000000 0.400000 0
7.100000 0.400000 0
7.200000 0.400000 0
7.300000 0.400000 0
7.400000 0.400000 0
7.500000 0.400000 0
7.600000 0.400000 0
7.700000 0.400000 0
7.800000 0.400000 0
7.900000 0.400000 0
8.000000 0.400000 0
8.100000 0.400000 0
8.200000 0.400000 0
8.300000 0.400000 0
8.400000 0.400000 0
8.500000 0.400000 0
8.600000 0.400000 0
[...]
POINT_DATA 2121 

VECTORS velocity float
0.500000 0.000000 0
0.000022 0.000000 0
0.000017 0.000000 0
0.000005 0.000000 0
-0.000010 0.000000 0
-0.000022 0.000000 0
-0.000030 0.000000 0
-0.000026 0.000000 0
-0.000006 0.000000 0
0.000036 0.000000 0
0.000105 0.000000 0
0.000204 0.000000 0
0.000330 0.000000 0
0.000474 0.000000 0
0.000619 0.000000 0
0.000740 0.000000 0
0.000810 0.000000 0
0.000802 0.000000 0
0.000692 0.000000 0
0.000463 0.000000 0
0.000108 0.000000 0
-0.000375 0.000000 0
-0.000972 0.000000 0
-0.001664 0.000000 0
-0.002432 0.000000 0
-0.003206 0.000000 0
-0.003860 0.000000 0
-0.004230 0.000000 0
-0.004166 0.000000 0
-0.003607 0.000000 0
-0.002625 0.000000 0
-0.001398 0.000000 0
-0.000119 0.000000 0
0.001070 0.000000 0
0.002051 0.000000 0
0.002770 0.000000 0
0.003213 0.000000 0
0.003395 0.000000 0
0.003342 0.000000 0
0.003092 0.000000 0
0.002683 0.000000 0
0.002157 0.000000 0
0.001558 0.000000 0
0.000939 0.000000 0
0.000346 0.000000 0
-0.000267 0.000000 0
-0.000916 0.000000 0
-0.001545 0.000000 0
-0.002049 0.000000 0
-0.002320 0.000000 0
-0.002304 0.000000 0
-0.002029 0.000000 0
-0.001589 0.000000 0
-0.001099 0.000000 0
-0.000647 0.000000 0
-0.000283 0.000000 0
-0.000024 0.000000 0
0.000130 0.000000 0
0.000194 0.000000 0
0.000185 0.000000 0
0.000123 0.000000 0
0.000026 0.000000 0
-0.000090 0.000000 0
-0.000210 0.000000 0
-0.000323 0.000000 0
-0.000423 0.000000 0
-0.000507 0.000000 0
-0.000574 0.000000 0
-0.000628 0.000000 0
-0.000671 0.000000 0
-0.000706 0.000000 0
-0.000733 0.000000 0
-0.000753 0.000000 0
-0.000766 0.000000 0
-0.000775 0.000000 0
-0.000781 0.000000 0
-0.000786 0.000000 0
-0.000791 0.000000 0
-0.000797 0.000000 0
-0.000806 0.000000 0
-0.000818 0.000000 0
-0.000836 0.000000 0
-0.000860 0.000000 0
-0.000890 0.000000 0
-0.000926 0.000000 0
-0.000965 0.000000 0
-0.001002 0.000000 0
-0.001032 0.000000 0
-0.001048 0.000000 0
-0.001041 0.000000 0
-0.001004 0.000000 0
-0.000931 0.000000 0
-0.000823 0.000000 0
-0.000682 0.000000 0
-0.000518 0.000000 0
-0.000347 0.000000 0
-0.000189 0.000000 0
-0.000066 0.000000 0
0.000003 0.000000 0
-0.000010 0.000000 0
-0.000035 0.000000 0
1.000000 0.000014 0
0.997370 -0.007721 0
1.004037 -0.014430 0
1.017056 -0.020995 0
1.036722 -0.027589 0
1.063237 -0.033982 0
1.096379 -0.039586 0
1.135073 -0.043530 0
1.177088 -0.044889 0
1.218874 -0.043269 0
1.257096 -0.039115 0
1.289555 -0.033280 0
1.315115 -0.026551 0
1.333317 -0.019507 0
1.344121 -0.012581 0
1.347856 -0.006143 0
1.345222 -0.000531 0
1.337271 0.003937 0
1.325344 0.006991 0
1.311015 0.008444 0
1.296005 0.008202 0
1.282094 0.006270 0
1.271047 0.002759 0
1.264568 -0.002156 0
1.264208 -0.008230 0
1.271126 -0.014939 0
1.285671 -0.021335 0
1.306852 -0.026137 0
1.332061 -0.028092 0
1.357370 -0.026488 0
1.378461 -0.021519 0
1.391857 -0.014212 0
1.395852 -0.005887 0
1.390483 0.002278 0
1.376757 0.009378 0
1.356272 0.014868 0
1.330905 0.018532 0
1.302572 0.020372 0
1.273060 0.020532 0
1.243946 0.019232 0
1.216558 0.016739 0
1.191986 0.013344 0
1.171130 0.009377 0
1.154760 0.005203 0
1.143590 0.001090 0
1.138259 -0.003061 0
1.139129 -0.007399 0
1.146008 -0.011649 0
1.157869 -0.015192 0
1.172808 -0.017346 0
1.188342 -0.017707 0
1.201949 -0.016351 0
1.211658 -0.013785 0
1.216461 -0.010714 0
1.216349 -0.007751 0
1.211897 -0.005274 0
1.203914 -0.003456 0
1.193271 -0.002320 0
1.180791 -0.001799 0
1.167180 -0.001779 0
1.153014 -0.002133 0
1.138765 -0.002736 0
1.124842 -0.003471 0
1.111644 -0.004238 0
1.099565 -0.004957 0
1.088980 -0.005581 0
1.080179 -0.006092 0
1.073308 -0.006487 0
1.068336 -0.006784 0
1.065066 -0.007007 0
1.063211 -0.007171 0
1.062473 -0.007283 0
1.062611 -0.007350 0
1.063450 -0.007384 0
1.064876 -0.007397 0
1.066814 -0.007400 0
1.069214 -0.007405 0
1.072033 -0.007419 0
1.075223 -0.007451 0
1.078726 -0.007504 0
1.082476 -0.007581 0
1.086400 -0.007684 0
1.090427 -0.007814 0
1.094494 -0.007968 0
1.098545 -0.008143 0
1.102533 -0.008328 0
1.106421 -0.008508 0
1.110176 -0.008659 0
1.113766 -0.008756 0
1.117157 -0.008769 0
1.120313 -0.008669 0
1.123192 -0.008437 0
1.125753 -0.008065 0
1.127958 -0.007563 0
1.129781 -0.006964 0
1.131208 -0.006318 0
1.132248 -0.005695 0
1.132930 -0.005163 0
1.133296 -0.004843 0
1.133390 -0.004487 0
1.133043 -0.004261 0
1.000000 0.000011 0
0.997931 -0.012428 0
1.004309 -0.024977 0
1.016759 -0.037976 0
1.036044 -0.051471 0
1.062905 -0.064946 0
1.097716 -0.077125 0
1.139818 -0.086000 0
1.186956 -0.089091 0
1.233423 -0.085297 0
1.274578 -0.075972 0
1.308275 -0.063309 0
1.333910 -0.049052 0
1.351421 -0.034297 0
1.360878 -0.019829 0
1.362608 -0.006391 0
1.357392 0.005294 0
1.346346 0.014587 0
1.330919 0.020967 0
1.312835 0.024050 0
1.293983 0.023631 0
1.276308 0.019668 0
1.261732 0.012236 0
1.252162 0.001548 0
1.249492 -0.011848 0
1.255380 -0.026753 0
1.270618 -0.041016 0
1.294323 -0.051680 0
1.323478 -0.055809 0
1.353228 -0.051690 0
1.377933 -0.039777 0
1.392837 -0.022681 0
1.395710 -0.003916 0
1.387035 0.013804 0
1.368405 0.028922 0
1.341932 0.040562 0
1.309905 0.048410 0
1.274540 0.052555 0
1.237846 0.053336 0
1.201583 0.051213 0
1.167267 0.046670 0
1.136222 0.040137 0
1.109639 0.031936 0
1.088662 0.022250 0
1.074432 0.011211 0
1.067960 -0.000829 0
1.069625 -0.013039 0
1.078880 -0.024030 0
1.094127 -0.032090 0
1.112825 -0.035763 0
1.131844 -0.034431 0
1.147938 -0.028605 0
1.158349 -0.019802 0
1.161473 -0.009981 0
1.157225 -0.000726 0
1.146526 0.007145 0
1.130565 0.013336 0
1.110567 0.017832 0
1.087651 0.020801 0
1.062767 0.022487 0
1.036689 0.023126 0
1.010074 0.022882 0
0.983521 0.021831 0
0.957637 0.019987 0
0.933056 0.017374 0
0.910403 0.014096 0
0.890211 0.010382 0
0.872844 0.006554 0
0.858446 0.002952 0
0.846941 -0.000165 0
0.838089 -0.002697 0
0.831565 -0.004690 0
0.827025 -0.006267 0
0.824160 -0.007555 0
0.822741 -0.008654 0
0.822602 -0.009628 0
0.823607 -0.010509 0
0.825618 -0.011299 0
0.828476 -0.011983 0
0.832001 -0.012543 0
0.835994 -0.012963 0
0.840251 -0.013242 0
0.844581 -0.013384 0
0.848814 -0.013407 0
0.852809 -0.013329 0
0.856457 -0.013167 0
0.859685 -0.012933 0
0.862448 -0.012635 0
0.864733 -0.012271 0
0.866549 -0.011836 0
0.867930 -0.011324 0
0.868923 -0.010730 0
0.869589 -0.010057 0
0.869991 -0.009318 0
0.870190 -0.008539 0
0.870233 -0.007757 0
0.870150 -0.007012 0
0.869939 -0.006338 0
0.869572 -0.005750 0
0.868918 -0.005037 0
0.868110 -0.004628 0
1.000000 0.000012 0
0.998013 -0.017319 0
1.004031 -0.035447 0
1.015841 -0.054920 0
1.034716 -0.075924 0
1.062267 -0.097844 0
1.100098 -0.118688 0
1.148704 -0.134959 0
1.206963 -0.140683 0
1.262408 -0.133079 0
1.308047 -0.116156 0
1.343057 -0.094801 0
1.368581 -0.071886 0
1.385475 -0.048664 0
1.393856 -0.025957 0
1.393814 -0.004846 0
1.386050 0.013542 0
1.371651 0.028221 0
1.352222 0.038314 0
1.329737 0.043192 0
1.306358 0.042540 0
1.284250 0.036332 0
1.265434 0.024716 0
1.251740 0.007895 0
1.245039 -0.013636 0
1.247632 -0.038254 0
1.261253 -0.062467 0
1.285664 -0.081185 0
1.318098 -0.089185 0
1.353524 -0.083132 0
1.385307 -0.063318 0
1.406710 -0.034178 0
1.413404 -0.002273 0
1.405488 0.027394 0
1.385330 0.052292 0
1.355870 0.071178 0
1.320049 0.083735 0
1.280561 0.090242 0
1.239775 0.091300 0
1.199758 0.087622 0
1.162318 0.079911 0
1.129053 0.068783 0
1.101332 0.054748 0
1.080213 0.038222 0
1.066290 0.019602 0
1.059676 -0.000443 0
1.060285 -0.020507 0
1.067766 -0.038340 0
1.081171 -0.051326 0
1.098918 -0.057251 0
1.118915 -0.055010 0
1.138463 -0.045045 0
1.154319 -0.029509 0
1.163349 -0.011780 0
1.163770 0.005007 0
1.156243 0.019197 0
1.142365 0.030315 0
1.123730 0.038404 0
1.101744 0.043812 0
1.077569 0.046994 0
1.052135 0.048370 0
1.026184 0.048244 0
1.000321 0.046777 0
0.975055 0.044038 0
0.950827 0.040088 0
0.928026 0.035075 0
0.906984 0.029279 0
0.887973 0.023089 0
0.871194 0.016929 0
0.856765 0.011161 0
0.844720 0.006016 0
0.835010 0.001593 0
0.827523 -0.002134 0
0.822123 -0.005289 0
0.818660 -0.008029 0
0.816976 -0.010456 0
0.816896 -0.012609 0
0.818212 -0.014477 0
0.820673 -0.016023 0
0.824002 -0.017210 0
0.827910 -0.018019 0
0.832121 -0.018460 0
0.836392 -0.018565 0
0.840519 -0.018385 0
0.844347 -0.017975 0
0.847765 -0.017393 0
0.850707 -0.016688 0
0.853141 -0.015896 0
0.855067 -0.015046 0
0.856510 -0.014155 0
0.857510 -0.013232 0
0.858122 -0.012285 0
0.858407 -0.011322 0
0.858425 -0.010353 0
0.858233 -0.009394 0
0.857873 -0.008467 0
0.857372 -0.007590 0
0.856738 -0.006774 0
0.855962 -0.006011 0
0.855029 -0.005213 0
0.854090 -0.004806 0
1.000000 0.000015 0
0.997637 -0.021749 0
1.002427 -0.044994 0
1.012323 -0.070850 0
1.029173 -0.100087 0
1.055798 -0.132517 0
1.095998 -0.165751 0
1.153139 -0.195054 0
1.231812 -0.204984 0
1.298389 -0.188571 0
1.344818 -0.158810 0
1.376305 -0.126032 0
1.398116 -0.093659 0
1.412635 -0.061761 0
1.419478 -0.030357 0
1.417529 -0.000773 0
1.406759 0.025268 0
1.388132 0.046226 0
1.363450 0.060691 0
1.335021 0.067724 0
1.305352 0.066929 0
1.276863 0.058404 0
1.251616 0.042557 0
1.231186 0.019755 0
1.216728 -0.009929 0
1.210141 -0.045156 0
1.214667 -0.081237 0
1.231526 -0.110714 0
1.259684 -0.125857 0
1.295927 -0.121087 0
1.334300 -0.095152 0
1.366394 -0.052966 0
1.383665 -0.004883 0
1.382580 0.039689 0
1.366538 0.076350 0
1.339394 0.103655 0
1.304721 0.121531 0
1.265579 0.130640 0
1.224565 0.131950 0
1.183920 0.126481 0
1.145620 0.115186 0
1.111413 0.098934 0
1.082754 0.078587 0
1.060561 0.055103 0
1.044776 0.029559 0
1.034178 0.002987 0
1.027305 -0.023318 0
1.024311 -0.047105 0
1.026105 -0.065431 0
1.033517 -0.075696 0
1.047050 -0.076164 0
1.065936 -0.066198 0
1.087486 -0.046878 0
1.107247 -0.021622 0
1.120256 0.004192 0
1.123718 0.026362 0
1.118977 0.043660 0
1.107877 0.056264 0
1.092041 0.064773 0
1.072826 0.069908 0
1.051360 0.072322 0
1.028577 0.072507 0
1.005249 0.070771 0
0.982001 0.067292 0
0.959339 0.062214 0
0.937659 0.055751 0
0.917267 0.048245 0
0.898387 0.040155 0
0.881180 0.031972 0
0.865757 0.024120 0
0.852211 0.016869 0
0.840641 0.010319 0
0.831164 0.004431 0
0.823895 -0.000881 0
0.818888 -0.005696 0
0.816109 -0.010053 0
0.815408 -0.013933 0
0.816524 -0.017264 0
0.819106 -0.019962 0
0.822760 -0.021969 0
0.827090 -0.023272 0
0.831738 -0.023913 0
0.836406 -0.023971 0
0.840862 -0.023551 0
0.844938 -0.022764 0
0.848529 -0.021716 0
0.851579 -0.020498 0
0.854070 -0.019184 0
0.856017 -0.017828 0
0.857456 -0.016467 0
0.858438 -0.015125 0
0.859022 -0.013816 0
0.859269 -0.012549 0
0.859238 -0.011334 0
0.858983 -0.010176 0
0.858547 -0.009085 0
0.857958 -0.008065 0
0.857236 -0.007116 0
0.856392 -0.006230 0
0.855442 -0.005354 0
0.854436 -0.004918 0
1.000000 0.000018 0
0.996874 -0.025036 0
0.999327 -0.052323 0
1.005353 -0.083855 0
1.017173 -0.121588 0
1.038836 -0.166858 0
1.077308 -0.218218 0
1.142128 -0.272962 0
1.255950 -0.288122 0
1.326261 -0.248275 0
1.357925 -0.196260 0
1.373185 -0.150288 0
1.383350 -0.110405 0
1.392310 -0.072214 0
1.398083 -0.033040 0
1.395766 0.005684 0
1.383227 0.040750 0
1.361133 0.069341 0
1.331473 0.089236 0
1.296861 0.099100 0
1.260134 0.098509 0
1.223925 0.087879 0
1.190132 0.068203 0
1.159715 0.040594 0
1.132888 0.005220 0
1.108997 -0.038382 0
1.091351 -0.086041 0
1.086426 -0.128392 0
1.098522 -0.155776 0
1.127940 -0.159937 0
1.169813 -0.135974 0
1.215015 -0.085732 0
1.251725 -0.020648 0
1.269391 0.042332 0
1.268791 0.093289 0
1.254632 0.130806 0
1.230785 0.155361 0
1.200362 0.168209 0
1.165992 0.170770 0
1.130003 0.164379 0
1.094508 0.150230 0
1.061409 0.129460 0
1.032287 0.103410 0
1.007936 0.074011 0
0.987473 0.043797 0
0.967979 0.014838 0
0.946264 -0.012829 0
0.922338 -0.039329 0
0.901840 -0.062721 0
0.891298 -0.080385 0
0.893907 -0.089618 0
0.909360 -0.087670 0
0.934960 -0.073008 0
0.966300 -0.046738 0
0.997556 -0.013653 0
1.022168 0.018287 0
1.036464 0.043966 0
1.041788 0.063151 0
1.039919 0.076675 0
1.032376 0.085486 0
1.020498 0.090430 0
1.005477 0.092166 0
0.988353 0.091164 0
0.970004 0.087759 0
0.951134 0.082242 0
0.932279 0.074959 0
0.913829 0.066362 0
0.896067 0.056987 0
0.879224 0.047371 0
0.863536 0.037940 0
0.849284 0.028943 0
0.836798 0.020452 0
0.826428 0.012424 0
0.818479 0.004797 0
0.813152 -0.002432 0
0.810495 -0.009164 0
0.810342 -0.015213 0
0.812318 -0.020365 0
0.815922 -0.024448 0
0.820623 -0.027382 0
0.825924 -0.029187 0
0.831408 -0.029966 0
0.836749 -0.029878 0
0.841713 -0.029105 0
0.846148 -0.027832 0
0.849969 -0.026223 0
0.853147 -0.024417 0
0.855690 -0.022523 0
0.857635 -0.020622 0
0.859037 -0.018765 0
0.859961 -0.016987 0
0.860475 -0.015305 0
0.860646 -0.013727 0
0.860535 -0.012256 0
0.860197 -0.010892 0
0.859674 -0.009631 0
0.859001 -0.008468 0
0.858201 -0.007397 0
0.857293 -0.006405 0
0.856295 -0.005446 0
0.855224 -0.004966 0
1.000000 0.000021 0
0.995733 -0.026366 0
0.994624 -0.055662 0
0.994335 -0.090885 0
0.996713 -0.135759 0
1.005980 -0.194841 0
1.031642 -0.271231 0
1.093020 -0.375885 0
1.253804 -0.391306 0
1.296731 -0.292734 0
1.280156 -0.207923 0
1.259867 -0.153646 0
1.247113 -0.114973 0
1.245912 -0.078683 0
1.252968 -0.036002 0
1.256200 0.011895 0
1.247321 0.057713 0
1.226809 0.095791 0
1.196491 0.122773 0
1.158896 0.136875 0
1.116979 0.137677 0
1.073395 0.126216 0
1.028668 0.104579 0
0.980440 0.074810 0
0.927409 0.038599 0
0.873575 -0.005809 0
0.827396 -0.060856 0
0.804005 -0.120074 0
0.810070 -0.169560 0
0.841714 -0.194567 0
0.891224 -0.184415 0
0.949810 -0.137067 0
1.007867 -0.061449 0
1.054101 0.020433 0
1.080229 0.088920 0
1.090303 0.139472 0
1.087634 0.173612 0
1.074841 0.193244 0
1.054334 0.200119 0
1.028399 0.195776 0
0.998972 0.181591 0
0.967060 0.158966 0
0.932017 0.129872 0
0.891902 0.097729 0
0.846029 0.067327 0
0.797773 0.042007 0
0.753658 0.020134 0
0.719252 -0.004870 0
0.698132 -0.036580 0
0.692050 -0.069951 0
0.700077 -0.096415 0
0.720286 -0.109440 0
0.750613 -0.106007 0
0.788777 -0.086406 0
0.831690 -0.053865 0
0.874495 -0.014735 0
0.910367 0.021851 0
0.935604 0.050620 0
0.951279 0.071997 0
0.959003 0.087139 0
0.960201 0.097032 0
0.956198 0.102463 0
0.948205 0.104055 0
0.937279 0.102322 0
0.924288 0.097749 0
0.909909 0.090866 0
0.894662 0.082268 0
0.878982 0.072571 0
0.863306 0.062314 0
0.848149 0.051872 0
0.834128 0.041419 0
0.821919 0.030985 0
0.812160 0.020562 0
0.805328 0.010206 0
0.801656 0.000099 0
0.801074 -0.009432 0
0.803177 -0.017945 0
0.807347 -0.025034 0
0.812911 -0.030456 0
0.819246 -0.034159 0
0.825837 -0.036246 0
0.832285 -0.036926 0
0.838308 -0.036465 0
0.843719 -0.035138 0
0.848415 -0.033209 0
0.852355 -0.030903 0
0.855547 -0.028407 0
0.858031 -0.025861 0
0.859870 -0.023365 0
0.861140 -0.020983 0
0.861920 -0.018752 0
0.862287 -0.016689 0
0.862314 -0.014798 0
0.862066 -0.013073 0
0.861599 -0.011504 0
0.860956 -0.010078 0
0.860174 -0.008781 0
0.859279 -0.007598 0
0.858290 -0.006514 0
0.857223 -0.005474 0
0.856086 -0.004949 0
1.000000 0.000024 0
0.994333 -0.024951 0
0.988755 -0.053113 0
0.980048 -0.088133 0
0.968363 -0.135423 0
0.955182 -0.203976 0
0.946714 -0.307446 0
0.964567 -0.497312 0
1.119086 -0.494023 0
1.097478 -0.276816 0
0.987032 -0.161586 0
0.921776 -0.119433 0
0.880618 -0.098639 0
0.869014 -0.080258 0
0.883812 -0.045517 0
0.907279 0.009142 0
0.916772 0.067953 0
0.911658 0.117983 0
0.891605 0.154959 0
0.855988 0.176422 0
0.804553 0.181822 0
0.738139 0.174002 0
0.660546 0.158970 0
0.580650 0.139664 0
0.511326 0.109895 0
0.465753 0.059442 0
0.450458 -0.018659 0
0.461459 -0.113255 0
0.492820 -0.195674 0
0.539431 -0.243281 0
0.597276 -0.246259 0
0.662553 -0.204563 0
0.731145 -0.127129 0
0.797278 -0.032219 0
0.849500 0.054898 0
0.884273 0.121212 0
0.903947 0.168633 0
0.909968 0.199320 0
0.903778 0.215024 0
0.886523 0.217552 0
0.858481 0.209379 0
0.818818 0.194227 0
0.766658 0.176380 0
0.703847 0.157810 0
0.637556 0.135737 0
0.579440 0.105020 0
0.540325 0.063503 0
0.524491 0.014009 0
0.527298 -0.037708 0
0.540921 -0.084519 0
0.560743 -0.120043 0
0.585490 -0.140395 0
0.615549 -0.143688 0
0.651450 -0.130005 0
0.692864 -0.101560 0
0.738120 -0.062578 0
0.783409 -0.019331 0
0.822425 0.020050 0
0.851849 0.051087 0
0.872415 0.074376 0
0.885352 0.091046 0
0.891841 0.101972 0
0.892997 0.107894 0
0.889825 0.109487 0
0.883183 0.107423 0
0.873789 0.102395 0
0.862289 0.095099 0
0.849344 0.086154 0
0.835732 0.076016 0
0.822377 0.064930 0
0.810304 0.052984 0
0.800499 0.040230 0
0.793747 0.026826 0
0.790493 0.013112 0
0.790776 -0.000366 0
0.794114 -0.012874 0
0.799687 -0.023675 0
0.806657 -0.032288 0
0.814302 -0.038536 0
0.822067 -0.042497 0
0.829552 -0.044415 0
0.836482 -0.044626 0
0.842686 -0.043501 0
0.848070 -0.041402 0
0.852603 -0.038657 0
0.856296 -0.035543 0
0.859195 -0.032282 0
0.861369 -0.029036 0
0.862898 -0.025920 0
0.863870 -0.023003 0
0.864371 -0.020322 0
0.864484 -0.017888 0
0.864282 -0.015695 0
0.863831 -0.013730 0
0.863183 -0.011971 0
0.862382 -0.010395 0
0.861463 -0.008979 0
0.860451 -0.007701 0
0.859365 -0.006539 0
0.858217 -0.005431 0
0.857014 -0.004867 0
1.000000 0.000027 0
0.992972 -0.020412 0
0.982975 -0.043565 0
0.965578 -0.072682 0
0.938162 -0.113082 0
0.896025 -0.175381 0
0.830596 -0.282805 0
0.726976 -0.550446 0
0.542988 -0.526407 0
-0.000273 -0.162869 0
0.383578 -0.034410 0
0.303562 -0.049422 0
0.295725 -0.064401 0
0.326058 -0.084066 0
0.365941 -0.076455 0
0.414813 -0.023254 0
0.454144 0.051144 0
0.474449 0.118768 0
0.473190 0.176255 0
0.446596 0.221738 0
0.393572 0.253337 0
0.318935 0.268034 0
0.237271 0.259879 0
0.172780 0.221842 0
0.143358 0.151307 0
0.152759 0.052869 0
0.191186 -0.058751 0
0.237681 -0.164625 0
0.282651 -0.249721 0
0.327876 -0.301212 0
0.377858 -0.309726 0
0.435235 -0.273125 0
0.499560 -0.198362 0
0.567738 -0.100111 0
0.632701 -0.000263 0
0.682507 0.082836 0
0.716009 0.145728 0
0.733200 0.191225 0
0.733921 0.221376 0
0.717824 0.238883 0
0.684718 0.247107 0
0.636130 0.248600 0
0.577766 0.242654 0
0.520303 0.224642 0
0.475711 0.189545 0
0.451211 0.137049 0
0.446786 0.072894 0
0.457449 0.005968 0
0.475563 -0.055199 0
0.494950 -0.105585 0
0.513602 -0.143173 0
0.532206 -0.166435 0
0.552823 -0.174156 0
0.577731 -0.165910 0
0.608367 -0.142725 0
0.644660 -0.107469 0
0.684959 -0.064642 0
0.725789 -0.020010 0
0.761656 0.019818 0
0.789750 0.051447 0
0.810432 0.075417 0
0.824472 0.092630 0
0.832685 0.103882 0
0.835848 0.109947 0
0.834693 0.111596 0
0.829948 0.109572 0
0.822429 0.104524 0
0.813116 0.096939 0
0.803177 0.087092 0
0.793906 0.075111 0
0.786553 0.061108 0
0.782123 0.045353 0
0.781207 0.028378 0
0.783900 0.010988 0
0.789681 -0.005711 0
0.797480 -0.020532 0
0.806274 -0.032677 0
0.815289 -0.041837 0
0.824002 -0.048056 0
0.832090 -0.051598 0
0.839372 -0.052849 0
0.845757 -0.052250 0
0.851220 -0.050243 0
0.855772 -0.047245 0
0.859454 -0.043624 0
0.862328 -0.039685 0
0.864468 -0.035669 0
0.865956 -0.031753 0
0.866878 -0.028055 0
0.867321 -0.024645 0
0.867367 -0.021555 0
0.867089 -0.018790 0
0.866556 -0.016334 0
0.865822 -0.014163 0
0.864937 -0.012245 0
0.863936 -0.010547 0
0.862850 -0.009038 0
0.861700 -0.007688 0
0.860502 -0.006469 0
0.859265 -0.005312 0
0.857994 -0.004719 0
1.000000 0.000028 0
0.992044 -0.013216 0
0.979029 -0.027908 0
0.955680 -0.045509 0
0.917440 -0.068059 0
0.855176 -0.098599 0
0.749398 -0.140586 0
0.557444 -0.211894 0
0.073195 0.000311 0
-0.518770 0.130177 0
0.000000 0.000064 0
-0.036440 -0.046595 0
-0.063491 -0.123324 0
-0.033337 -0.152663 0
-0.020497 -0.136462 0
0.004647 -0.081250 0
0.051051 0.006128 0
0.092202 0.096748 0
0.112988 0.180623 0
0.108604 0.253851 0
0.082101 0.307294 0
0.045394 0.328115 0
0.019781 0.302935 0
0.021544 0.231388 0
0.051093 0.127727 0
0.099258 0.009425 0
0.146998 -0.105770 0
0.185098 -0.206908 0
0.212565 -0.288057 0
0.234013 -0.340677 0
0.257518 -0.355807 0
0.290480 -0.328454 0
0.335902 -0.261820 0
0.391626 -0.167549 0
0.451779 -0.062061 0
0.504846 0.035715 0
0.542285 0.115752 0
0.562594 0.179219 0
0.564837 0.228211 0
0.549268 0.264566 0
0.518736 0.288884 0
0.480126 0.298990 0
0.443946 0.290017 0
0.420636 0.257676 0
0.415650 0.202640 0
0.427686 0.131755 0
0.451160 0.055077 0
0.478784 -0.016957 0
0.503737 -0.077398 0
0.523549 -0.124747 0
0.537709 -0.159488 0
0.547319 -0.181805 0
0.554917 -0.191402 0
0.563926 -0.187737 0
0.577631 -0.170678 0
0.598011 -0.141359 0
0.625057 -0.102649 0
0.656892 -0.058836 0