# vtk DataFile Version 2.0
generated by CFD-lab course output (written by Tobias Neckel) 
ASCII

DATASET STRUCTURED_GRID
DIMENSIONS  101 21 1 
POINTS 2121 float

0.000000 0.000000 0
0.100000 0.000000 0
0.200000 0.000000 0
0.300000 0.000000 0
0.400000 0.000000 0
0.500000 0.000000 0
0.600000 0.000000 0
0.700000 0.000000 0
0.800000 0.000000 0
0.900000 0.000000 0
1.000000 0.000000 0
1.100000 0.000000 0
1.200000 0.000000 0
1.300000 0.000000 0
1.400000 0.000000 0
1.500000 0.000000 0
1.600000 0.000000 0
1.700000 0.000000 0
1.800000 0.000000 0
1.900000 0.000000 0
2.000000 0.000000 0
2.100000 0.000000 0
2.200000 0.000000 0
2.300000 0.000000 0
2.400000 0.000000 0
2.500000 0.000000 0
2.600000 0.000000 0
2.700000 0.000000 0
2.800000 0.000000 0
2.900000 0.000000 0
3.000000 0.000000 0
3.100000 0.000000 0
3.200000 0.000000 0
3.300000 0.000000 0
3.400000 0.000000 0
3.500000 0.000000 0
3.600000 0.000000 0
3.700000 0.000000 0
3.800000 0.000000 0
3.900000 0.000000 0
4.000000 0.000000 0
4.100000 0.000000 0
4.200000 0.000000 0
4.300000 0.000000 0
4.400000 0.000000 0
4.500000 0.000000 0
4.600000 0.000000 0
4.700000 0.000000 0
4.800000 0.000000 0
4.900000 0.000000 0
5.000000 0.000000 0
5.100000 0.000000 0
5.200000 0.000000 0
5.300000 0.000000 0
5.400000 0.000000 0
5.500000 0.000000 0
5.600000 0.000000 0
5.700000 0.000000 0
5.800000 0.000000 0
5.900000 0.000000 0
6.000000 0.000000 0
6.100000 0.000000 0
6.200000 0.000000 0
6.300000 0.000000 0
6.400000 0.000000 0
6.500000 0.000000 0
6.600000 0.000000 0
6.700000 0.000000 0
6.800000 0.000000 0
6.900000 0.000000 0
7.000000 0.000000 0
7.100000 0.000000 0
7.200000 0.000000 0
7.300000 0.000000 0
7.400000 0.000000 0
7.500000 0.000000 0
7.600000 0.000000 0
7.700000 0.000000 0
7.800000 0.000000 0
7.900000 0.000000 0
8.000000 0.000000 0
8.100000 0.000000 0
8.200000 0.000000 0
8.300000 0.000000 0
8.400000 0.000000 0
8.500000 0.000000 0
8.600000 0.000000 0
8.700000 0.000000 0
8.800000 0.000000 0
8.900000 0.000000 0
9.000000 0.000000 0
9.100000 0.000000 0
9.200000 0.000000 0
9.300000 0.000000 0
9.400000 0.000000 0
9.500000 0.000000 0
9.600000 0.000000 0
9.700000 0.000000 0
9.800000 0.000000 0
9.900000 0.000000 0
10.000000 0.000000 0
0.000000 0.100000 0
0.100000 0.100000 0
0.200000 0.100000 0
0.300000 0.100000 0
0.400000 0.100000 0
0.500000 0.100000 0
0.600000 0.100000 0
0.700000 0.100000 0
0.800000 0.100000 0
0.900000 0.100000 0
1.000000 0.100000 0
1.100000 0.100000 0
1.200000 0.100000 0
1.300000 0.100000 0
1.400000 0.100000 0
1.500000 0.100000 0
1.600000 0.100000 0
1.700000 0.100000 0
1.800000 0.100000 0
1.900000 0.100000 0
2.000000 0.100000 0
2.100000 0.100000 0
2.200000 0.100000 0
2.300000 0.100000 0
2.400000 0.100000 0
2.500000 0.100000 0
2.600000 0.100000 0
2.700000 0.100000 0
2.800000 0.100000 0
2.900000 0.100000 0
3.000000 0.100000 0
3.100000 0.100000 0
3.200000 0.100000 0
3.300000 0.100000 0
3.400000 0.100000 0
3.500000 0.100000 0
3.600000 0.100000 0
3.700000 0.100000 0
3.800000 0.100000 0
3.900000 0.100000 0
4.000000 0.100000 0
4.100000 0.100000 0
4.200000 0.100000 0
4.300000 0.100000 0
4.400000 0.100000 0
4.500000 0.100000 0
4.600000 0.100000 0
4.700000 0.100000 0
4.800000 0.100000 0
4.900000 0.100000 0
5.000000 0.100000 0
5.100000 0.100000 0
5.200000 0.100000 0
5.300000 0.100000 0
5.400000 0.100000 0
5.500000 0.100000 0
5.600000 0.100000 0
5.700000 0.100000 0
5.800000 0.100000 0
5.900000 0.100000 0
6.000000 0.100000 0
6.100000 0.100000 0
6.200000 0.100000 0
6.300000 0.100000 0
6.400000 0.100000 0
6.500000 0.100000 0
6.600000 0.100000 0
6.700000 0.100000 0
6.800000 0.100000 0
6.900000 0.100000 0
7.000000 0.100000 0
7.100000 0.100000 0
7.200000 0.100000 0
7.300000 0.100000 0
7.400000 0.100000 0
7.500000 0.100000 0
7.600000 0.100000 0
7.700000 0.100000 0
7.800000 0.100000 0
7.900000 0.100000 0
8.000000 0.100000 0
8.100000 0.100000 0
8.200000 0.100000 0
8.300000 0.100000 0
8.400000 0.100000 0
8.500000 0.100000 0
8.600000 0.100000 0
8.700000 0.100000 0
8.800000 0.100000 0
8.900000 0.100000 0
9.000000 0.100000 0
9.100000 0.100000 0
9.200000 0.100000 0
9.300000 0.100000 0
9.400000 0.100000 0
9.500000 0.100000 0
9.600000 0.100000 0
9.700000 0.100000 0
9.800000 0.100000 0
9.900000 0.100000 0
10.000000 0.100000 0
0.000000 0.200000 0
0.100000 0.200000 0
0.200000 0.200000 0
0.300000 0.200000 0
0.400000 0.200000 0
0.500000 0.200000 0
0.600000 0.200000 0
0.700000 0.200000 0
0.800000 0.200000 0
0.900000 0.200000 0
1.000000 0.200000 0
1.100000 0.200000 0
1.200000 0.200000 0
1.300000 0.200000 0
1.400000 0.200000 0
1.500000 0.200000 0
1.600000 0.200000 0
1.700000 0.200000 0
1.800000 0.200000 0
1.900000 0.200000 0
2.000000 0.200000 0
2.100000 0.200000 0
2.200000 0.200000 0
2.300000 0.200000 0
2.400000 0.200000 0
2.500000 0.200000 0
2.600000 0.200000 0
2.700000 0.200000 0
2.800000 0.200000 0
2.900000 0.200000 0
3.000000 0.200000 0
3.100000 0.200000 0
3.200000 0.200000 0
3.300000 0.200000 0
3.400000 0.200000 0
3.500000 0.200000 0
3.600000 0.200000 0
3.700000 0.200000 0
3.800000 0.200000 0
3.900000 0.200000 0
4.000000 0.200000 0
4.100000 0.200000 0
4.200000 0.200000 0
4.300000 0.200000 0
4.400000 0.200000 0
4.500000 0.200000 0
4.600000 0.200000 0
4.700000 0.200000 0
4.800000 0.200000 0
4.900000 0.200000 0
5.000000 0.200000 0
5.100000 0.200000 0
5.200000 0.200000 0
5.300000 0.200000 0
5.400000 0.200000 0
5.500000 0.200000 0
5.600000 0.200000 0
5.700000 0.200000 0
5.800000 0.200000 0
5.900000 0.200000 0
6.000000 0.200000 0
6.100000 0.200000 0
6.200000 0.200000 0
6.300000 0.200000 0
6.400000 0.200000 0
6.500000 0.200000 0
6.600000 0.200000 0
6.700000 0.200000 0
6.800000 0.200000 0
6.900000 0.200000 0
7.000000 0.200000 0
7.100000 0.200000 0
7.200000 0.200000 0
7.300000 0.200000 0
7.400000 0.200000 0
7.500000 0.200000 0
7.600000 0.200000 0
7.700000 0.200000 0
7.800000 0.200000 0
7.900000 0.200000 0
8.000000 0.200000 0
8.100000 0.200000 0
8.200000 0.200000 0
8.300000 0.200000 0
8.400000 0.200000 0
8.500000 0.200000 0
8.600000 0.200000 0
8.700000 0.200000 0
8.800000 0.200000 0
8.900000 0.200000 0
9.000000 0.200000 0
9.100000 0.200000 0
9.200000 0.200000 0
9.300000 0.200000 0
9.400000 0.200000 0
9.500000 0.200000 0
9.600000 0.200000 0
9.700000 0.200000 0
9.800000 0.200000 0
9.900000 0.200000 0
10.000000 0.200000 0
0.000000 0.300000 0
0.100000 0.300000 0
0.200000 0.300000 0
0.300000 0.300000 0
0.400000 0.300000 0
0.500000 0.300000 0
0.600000 0.300000 0
0.700000 0.300000 0
0.800000 0.300000 0
0.900000 0.300000 0
1.000000 0.300000 0
1.100000 0.300000 0
1.200000 0.300000 0
1.300000 0.300000 0
1.400000 0.300000 0
1.500000 0.300000 0
1.600000 0.300000 0
1.700000 0.300000 0
1.800000 0.300000 0
1.900000 0.300000 0
2.000000 0.300000 0
2.100000 0.300000 0
2.200000 0.300000 0
2.300000 0.300000 0
2.400000 0.300000 0
2.500000 0.300000 0
2.600000 0.300000 0
2.700000 0.300000 0
2.800000 0.300000 0
2.900000 0.300000 0
3.000000 0.300000 0
3.100000 0.300000 0
3.200000 0.300000 0
3.300000 0.300000 0
3.400000 0.300000 0
3.500000 0.300000 0
3.600000 0.300000 0
3.700000 0.300000 0
3.800000 0.300000 0
3.900000 0.300000 0
4.000000 0.300000 0
4.100000 0.300000 0
4.200000 0.300000 0
4.300000 0.300000 0
4.400000 0.300000 0
4.500000 0.300000 0
4.600000 0.300000 0
4.700000 0.300000 0
4.800000 0.300000 0
4.900000 0.300000 0
5.000000 0.300000 0
5.100000 0.300000 0
5.200000 0.300000 0
5.300000 0.300000 0
5.400000 0.300000 0
5.500000 0.300000 0
5.600000 0.300000 0
5.700000 0.300000 0
5.800000 0.300000 0
5.900000 0.300000 0
6.000000 0.300000 0
6.100000 0.300000 0
6.200000 0.300000 0
6.300000 0.300000 0
6.400000 0.300000 0
6.500000 0.300000 0
6.600000 0.300000 0
6.700000 0.300000 0
6.800000 0.300000 0
6.900000 0.300000 0
7.000000 0.300000 0
7.100000 0.300000 0
7.200000 0.300000 0
7.300000 0.300000 0
7.400000 0.300000 0
7.500000 0.300000 0
7.600000 0.300000 0
7.700000 0.300000 0
7.800000 0.300000 0
7.900000 0.300000 0
8.000000 0.300000 0
8.100000 0.300000 0
8.200000 0.300000 0
8.300000 0.300000 0
8.400000 0.300000 0
8.500000 0.300000 0
8.600000 0.300000 0
8.700000 0.300000 0
8.800000 0.300000 0
8.900000 0.300000 0
9.000000 0.300000 0
9.100000 0.300000 0
9.200000 0.300000 0
9.300000 0.300000 0
9.400000 0.300000 0
9.500000 0.300000 0
9.600000 0.300000 0
9.700000 0.300000 0
9.800000 0.300000 0
9.900000 0.300000 0
10.000000 0.300000 0
0.000000 0.400000 0
0.100000 0.400000 0
0.200000 0.400000 0
0.300000 0.400000 0
0.400000 0.400000 0
0.500000 0.400000 0
0.600000 0.400000 0
0.700000 0.400000 0
0.800000 0.400000 0
0.900000 0.400000 0
1.000000 0.400000 0
1.100000 0.400000 0
1.200000 0.400000 0
1.300000 0.400000 0
1.400000 0.400000 0
1.500000 0.400000 0
1.600000 0.400000 0
1.700000 0.400000 0
1.800000 0.400000 0
1.900000 0.400000 0
2.000000 0.400000 0
2.100000 0.400000 0
2.200000 0.400000 0
2.300000 0.400000 0
2.400000 0.400000 0
2.500000 0.400000 0
2.600000 0.400000 0
2.700000 0.400000 0
2.800000 0.400000 0
2.900000 0.400000 0
3.000000 0.400000 0
3.100000 0.400000 0
3.200000 0.400000 0
3.300000 0.400000 0
3.400000 0.400000 0
3.500000 0.400000 0
3.600000 0.400000 0
3.700000 0.400000 0
3.800000 0.400000 0
3.900000 0.400000 0
4.000000 0.400000 0
4.100000 0.400000 0
4.200000 0.400000 0
4.300000 0.400000 0
4.400000 0.400000 0
4.500000 0.400000 0
4.600000 0.400000 0
4.700000 0.400000 0
4.800000 0.400000 0
4.900000 0.400000 0
5.000000 0.400000 0
5.100000 0.400000 0
5.200000 0.400000 0
5.300000 0.400000 0
5.400000 0.400000 0
5.500000 0.400000 0
5.600000 0.400000 0
5.700000 0.400000 0
5.800000 0.400000 0
5.900000 0.400000 0
6.000000 0.400000 0
6.100000 0.400000 0
6.200000 0.400000 0
6.300000 0.400000 0
6.400000 0.400000 0
6.500000 0.400000 0
6.600000 0.400000 0
6.700000 0.400000 0
6.800000 0.400000 0
6.900000 0.400000 0
7.000000 0.400000 0
7.100000 0.400000 0
7.200000 0.400000 0
7.300000 0.400000 0
7.400000 0.400000 0
7.500000 0.400000 0
7.600000 0.400000 0
7.700000 0.400000 0
7.800000 0.400000 0
7.900000 0.400000 0
8.000000 0.400000 0
8.100000 0.400000 0
8.200000 0.400000 0
8.300000 0.400000 0
8.400000 0.400000 0
8.500000 0.400000 0
8.600000 0.400000 0
[...]
POINT_DATA 2121 

VECTORS velocity float
0.500000 0.000000 0
-0.000001 0.000000 0
-0.000011 0.000000 0
-0.000028 0.000000 0
-0.000052 0.000000 0
-0.000078 0.000000 0
-0.000105 0.000000 0
-0.000128 0.000000 0
-0.000139 0.000000 0
-0.000131 0.000000 0
-0.000095 0.000000 0
-0.000022 0.000000 0
0.000095 0.000000 0
0.000259 0.000000 0
0.000464 0.000000 0
0.000693 0.000000 0
0.000920 0.000000 0
0.001114 0.000000 0
0.001243 0.000000 0
0.001280 0.000000 0
0.001201 0.000000 0
0.000991 0.000000 0
0.000645 0.000000 0
0.000166 0.000000 0
-0.000432 0.000000 0
-0.001126 0.000000 0
-0.001883 0.000000 0
-0.002626 0.000000 0
-0.003237 0.000000 0
-0.003577 0.000000 0
-0.003527 0.000000 0
-0.003041 0.000000 0
-0.002182 0.000000 0
-0.001106 0.000000 0
0.000027 0.000000 0
0.001114 0.000000 0
0.002073 0.000000 0
0.002854 0.000000 0
0.003435 0.000000 0
0.003811 0.000000 0
0.003984 0.000000 0
0.003961 0.000000 0
0.003745 0.000000 0
0.003339 0.000000 0
0.002742 0.000000 0
0.001945 0.000000 0
0.000935 0.000000 0
-0.000284 0.000000 0
-0.001626 0.000000 0
-0.003000 0.000000 0
-0.004317 0.000000 0
-0.005467 0.000000 0
-0.006319 0.000000 0
-0.006736 0.000000 0
-0.006585 0.000000 0
-0.005784 0.000000 0
-0.004363 0.000000 0
-0.002516 0.000000 0
-0.000568 0.000000 0
0.001257 0.000000 0
0.002863 0.000000 0
0.004168 0.000000 0
0.005116 0.000000 0
0.005682 0.000000 0
0.005870 0.000000 0
0.005707 0.000000 0
0.005235 0.000000 0
0.004499 0.000000 0
0.003551 0.000000 0
0.002443 0.000000 0
0.001237 0.000000 0
0.000019 0.000000 0
-0.001087 0.000000 0
-0.002062 0.000000 0
-0.002926 0.000000 0
-0.003707 0.000000 0
-0.004416 0.000000 0
-0.005037 0.000000 0
-0.005520 0.000000 0
-0.005776 0.000000 0
-0.005703 0.000000 0
-0.005206 0.000000 0
-0.004233 0.000000 0
-0.002825 0.000000 0
-0.001139 0.000000 0
0.000598 0.000000 0
0.002272 0.000000 0
0.003788 0.000000 0
0.005030 0.000000 0
0.005890 0.000000 0
0.006294 0.000000 0
0.006223 0.000000 0
0.005726 0.000000 0
0.004922 0.000000 0
0.003960 0.000000 0
0.002990 0.000000 0
0.002120 0.000000 0
0.001408 0.000000 0
0.000872 0.000000 0
0.000485 0.000000 0
0.000155 0.000000 0
1.000000 0.000005 0
1.002052 -0.004996 0
1.009961 -0.010651 0
1.023832 -0.016777 0
1.044134 -0.023213 0
1.071186 -0.029601 0
1.104850 -0.035286 0
1.144110 -0.039353 0
1.186777 -0.040848 0
1.229339 -0.039371 0
1.268513 -0.035373 0
1.302167 -0.029713 0
1.329237 -0.023154 0
1.349290 -0.016194 0
1.362182 -0.009144 0
1.367954 -0.002268 0
1.366884 0.004164 0
1.359530 0.009879 0
1.346755 0.014603 0
1.329713 0.018087 0
1.309797 0.020142 0
1.288554 0.020666 0
1.267590 0.019643 0
1.248472 0.017141 0
1.232654 0.013298 0
1.221411 0.008309 0
1.215794 0.002446 0
1.216528 -0.003771 0
1.223747 -0.009498 0
1.236622 -0.013717 0
1.253135 -0.015488 0
1.270274 -0.014302 0
1.284704 -0.010344 0
1.293652 -0.004447 0
1.295526 0.002364 0
1.289926 0.009251 0
1.277270 0.015589 0
1.258501 0.020953 0
1.234844 0.025113 0
1.207642 0.027968 0
1.178252 0.029497 0
1.148008 0.029717 0
1.118207 0.028648 0
1.090119 0.026305 0
1.064986 0.022679 0
1.044021 0.017723 0
1.028393 0.011372 0
1.019176 0.003690 0
1.017294 -0.004876 0
1.023424 -0.013678 0
1.037816 -0.022098 0
1.060118 -0.029451 0
1.089296 -0.034991 0
1.123638 -0.037951 0
1.160731 -0.037637 0
1.197450 -0.033614 0
1.230134 -0.026018 0
1.255098 -0.015812 0
1.269476 -0.004621 0
1.272070 0.006163 0
1.263560 0.015809 0
1.245448 0.023845 0
1.219676 0.029912 0
1.188439 0.033818 0
1.154020 0.035524 0
1.118638 0.035122 0
1.084340 0.032788 0
1.052921 0.028752 0
1.025861 0.023283 0
1.004264 0.016696 0
0.988791 0.009393 0
0.979637 0.001934 0
0.976621 -0.005019 0
0.979330 -0.011120 0
0.987265 -0.016415 0
0.999996 -0.021044 0
1.017205 -0.025103 0
1.038628 -0.028551 0
1.063871 -0.031151 0
1.092184 -0.032480 0
1.122292 -0.032009 0
1.152361 -0.029249 0
1.180097 -0.023942 0
1.202984 -0.016285 0
1.218628 -0.007075 0
1.225230 0.002571 0
1.222200 0.011834 0
1.210096 0.020165 0
1.190104 0.026961 0
1.163983 0.031639 0
1.133947 0.033767 0
1.102447 0.033189 0
1.071893 0.030118 0
1.044335 0.025135 0
1.021194 0.019072 0
1.003128 0.012811 0
0.990070 0.007107 0
0.981406 0.002523 0
0.976185 -0.000562 0
0.973275 -0.000577 0
0.970426 0.000208 0
1.000000 0.000008 0
1.002392 -0.010820 0
1.010673 -0.022322 0
1.024965 -0.034714 0
1.045983 -0.047895 0
1.074486 -0.061258 0
1.110892 -0.073465 0
1.154587 -0.082468 0
1.203363 -0.085770 0
1.251571 -0.082277 0
1.294651 -0.073370 0
1.330578 -0.061266 0
1.358924 -0.047664 0
1.379788 -0.033486 0
1.393231 -0.019205 0
1.399246 -0.005243 0
1.398056 0.007883 0
1.390182 0.019587 0
1.376500 0.029276 0
1.358236 0.036417 0
1.336899 0.040618 0
1.314162 0.041666 0
1.291751 0.039541 0
1.271332 0.034395 0
1.254416 0.026520 0
1.242327 0.016318 0
1.236230 0.004342 0
1.237154 -0.008493 0
1.245695 -0.020635 0
1.261339 -0.029930 0
1.281972 -0.034194 0
1.303987 -0.032110 0
1.323090 -0.023919 0
1.335589 -0.011363 0
1.339556 0.003184 0
1.334924 0.017714 0
1.322515 0.030884 0
1.303615 0.041885 0
1.279679 0.050317 0
1.252167 0.056051 0
1.222467 0.059093 0
1.191883 0.059503 0
1.161652 0.057347 0
1.132955 0.052680 0
1.106918 0.045556 0
1.084580 0.036051 0
1.066845 0.024304 0
1.054444 0.010557 0
1.048004 -0.004790 0
1.048200 -0.021064 0
1.055454 -0.037235 0
1.069782 -0.052021 0
1.090862 -0.064061 0
1.118112 -0.071977 0
1.150502 -0.074354 0
1.186171 -0.069944 0
1.222173 -0.058189 0
1.254565 -0.039884 0
1.278977 -0.017514 0
1.291818 0.005375 0
1.292186 0.026080 0
1.281549 0.043343 0
1.261918 0.056468 0
1.235575 0.065114 0
1.204864 0.069260 0
1.172036 0.069139 0
1.139127 0.065176 0
1.107865 0.057936 0
1.079602 0.048115 0
1.055254 0.036529 0
1.035290 0.024086 0
1.019785 0.011628 0
1.008629 -0.000234 0
1.001744 -0.011185 0
0.999077 -0.021208 0
1.000745 -0.030482 0
1.007058 -0.039174 0
1.018424 -0.047208 0
1.035043 -0.054097 0
1.056591 -0.058963 0
1.082079 -0.060719 0
1.109909 -0.058347 0
1.138040 -0.051165 0
1.164164 -0.039072 0
1.185839 -0.022788 0
1.200677 -0.004114 0
1.206940 0.014592 0
1.204484 0.031554 0
1.194096 0.045571 0
1.177114 0.055615 0
1.155248 0.060995 0
1.130371 0.061512 0
1.104324 0.057570 0
1.078725 0.050157 0
1.054837 0.040665 0
1.033486 0.030582 0
1.015087 0.021181 0
0.999742 0.013343 0
0.987397 0.007589 0
0.977915 0.005217 0
0.972014 0.004474 0
1.000000 0.000011 0
1.002034 -0.016210 0
1.009522 -0.033448 0
1.022855 -0.052311 0
1.043244 -0.072958 0
1.072293 -0.094734 0
1.111635 -0.115610 0
1.161804 -0.132048 0
1.221690 -0.138056 0
1.278841 -0.130883 0
1.326282 -0.114604 0
1.363304 -0.094210 0
1.391346 -0.072588 0
1.411705 -0.050726 0
1.424741 -0.028826 0
1.430096 -0.007317 0
1.427674 0.013003 0
1.417817 0.031211 0
1.401399 0.046325 0
1.379795 0.057464 0
1.354731 0.063993 0
1.328122 0.065590 0
1.301921 0.062249 0
1.277973 0.054252 0
1.257887 0.042079 0
1.243006 0.026271 0
1.234537 0.007395 0
1.233863 -0.013460 0
1.242339 -0.033906 0
1.260048 -0.050218 0
1.285031 -0.058361 0
1.313317 -0.055644 0
1.339483 -0.042170 0
1.358002 -0.021137 0
1.365450 0.002805 0
1.361954 0.026069 0
1.349198 0.046674 0
1.329183 0.063566 0
1.303830 0.076336 0
1.274831 0.084956 0
1.243632 0.089558 0
1.211492 0.090308 0
1.179545 0.087352 0
1.148851 0.080815 0
1.120404 0.070831 0
1.095115 0.057572 0
1.073736 0.041284 0
1.056768 0.022307 0
1.044391 0.001144 0
1.036574 -0.021352 0
1.033465 -0.043904 0
1.035466 -0.065083 0
1.043394 -0.083544 0
1.058439 -0.097815 0
1.081394 -0.105920 0
1.111810 -0.105510 0
1.147628 -0.094636 0
1.185264 -0.072840 0
1.219960 -0.042098 0
1.246472 -0.007270 0
1.260629 0.025854 0
1.262301 0.053888 0
1.253276 0.075662 0
1.235725 0.090648 0
1.211934 0.098839 0
1.184122 0.100635 0
1.154312 0.096734 0
1.124230 0.088053 0
1.095254 0.075670 0
1.068378 0.060784 0
1.044207 0.044637 0
1.022972 0.028371 0
1.004613 0.012799 0
0.989021 -0.001792 0
0.976406 -0.015640 0
0.967615 -0.029249 0
0.963993 -0.043006 0
0.966783 -0.056760 0
0.976553 -0.069543 0
0.992919 -0.079740 0
1.014655 -0.085550 0
1.039996 -0.085433 0
1.066926 -0.078421 0
1.093380 -0.064308 0
1.117366 -0.043813 0
1.136977 -0.018755 0
1.150308 0.007803 0
1.156169 0.032784 0
1.154650 0.054106 0
1.146435 0.070263 0
1.132602 0.080286 0
1.114430 0.083889 0
1.093244 0.081540 0
1.070307 0.074398 0
1.046759 0.064087 0
1.023599 0.052337 0
1.001712 0.040627 0
0.981922 0.029989 0
0.965043 0.021040 0
0.951841 0.014582 0
0.944056 0.011062 0
1.000000 0.000015 0
1.001512 -0.020883 0
1.007534 -0.043367 0
1.018726 -0.068659 0
1.036898 -0.097556 0
1.064877 -0.129873 0
1.106502 -0.163200 0
1.165188 -0.192747 0
1.245533 -0.203030 0
1.313817 -0.187093 0
1.361819 -0.158057 0
1.394757 -0.126554 0
1.418296 -0.096289 0
1.435807 -0.067105 0
1.447954 -0.037820 0
1.453220 -0.008399 0
1.450064 0.019938 0
1.438275 0.045639 0
1.418715 0.067074 0
1.392990 0.082860 0
1.363134 0.092067 0
1.331401 0.094252 0
1.300080 0.089466 0
1.271288 0.078204 0
1.246741 0.061263 0
1.227634 0.039444 0
1.214741 0.013261 0
1.208851 -0.016520 0
1.211975 -0.047045 0
1.225536 -0.072846 0
1.248997 -0.087687 0
1.280038 -0.086787 0
1.314037 -0.068828 0
1.343882 -0.037554 0
1.361934 -0.000991 0
1.364848 0.033743 0
1.355416 0.063431 0
1.336826 0.087028 0
1.311792 0.104445 0
1.282445 0.116025 0
1.250426 0.122208 0
1.217050 0.123366 0
1.183438 0.119765 0
1.150620 0.111598 0
1.119568 0.099068 0
1.091138 0.082495 0
1.065849 0.062427 0
1.043569 0.039678 0
1.023375 0.015180 0
1.004014 -0.010362 0
0.985184 -0.036351 0
0.969130 -0.062174 0
0.959742 -0.087259 0
0.960707 -0.110200 0
0.973809 -0.127949 0
0.998482 -0.136402 0
1.032432 -0.131867 0
1.072281 -0.112440 0
1.113873 -0.078946 0
1.152336 -0.035518 0
1.182130 0.010027 0
1.199334 0.050471 0
1.204603 0.082820 0
1.199610 0.106233 0
1.186351 0.120638 0
1.166887 0.126536 0
1.143175 0.124844 0
1.116954 0.116770 0
1.089656 0.103742 0
1.062312 0.087352 0
1.035489 0.069268 0
1.009350 0.050998 0
0.983977 0.033492 0
0.959892 0.016797 0
0.938444 -0.000026 0
0.921662 -0.018294 0
0.911768 -0.038567 0
0.910222 -0.059992 0
0.917081 -0.080457 0
0.931244 -0.097288 0
0.951006 -0.108020 0
0.974468 -0.110841 0
0.999751 -0.104773 0
1.025100 -0.089737 0
1.048934 -0.066608 0
1.069829 -0.037280 0
1.086408 -0.004825 0
1.097160 0.026989 0
1.101557 0.055081 0
1.099721 0.077438 0
1.092166 0.092775 0
1.079642 0.100646 0
1.063013 0.101469 0
1.043193 0.096418 0
1.021135 0.087149 0
0.997873 0.075406 0
0.974590 0.062634 0
0.952661 0.049788 0
0.933571 0.037446 0
0.918719 0.025980 0
0.910008 0.019046 0
1.000000 0.000019 0
1.000683 -0.024285 0
1.004225 -0.050886 0
1.011377 -0.081898 0
1.024345 -0.119333 0
1.047207 -0.164562 0
1.086992 -0.216145 0
1.153349 -0.271303 0
1.269076 -0.286910 0
1.341248 -0.247393 0
1.374209 -0.195768 0
1.389957 -0.150911 0
1.399903 -0.113861 0
1.409525 -0.080607 0
1.419873 -0.046463 0
1.427377 -0.009650 0
1.426175 0.027724 0
1.414720 0.062336 0
1.393953 0.091387 0
1.365711 0.112821 0
1.332219 0.125358 0
1.295970 0.128420 0
1.259586 0.122138 0
1.225508 0.107367 0
1.195476 0.085509 0
1.170163 0.058047 0
1.149360 0.025955 0
1.132247 -0.010917 0
1.118915 -0.050816 0
1.114295 -0.087464 0
1.122403 -0.113086 0
1.145587 -0.120909 0
1.182338 -0.106238 0
1.226139 -0.069258 0
1.266053 -0.018384 0
1.290500 0.032362 0
1.297338 0.074472 0
1.291186 0.106966 0
1.275684 0.130493 0
1.253469 0.146097 0
1.226500 0.154729 0
1.196314 0.157073 0
1.164214 0.153558 0
1.131379 0.144461 0
1.098892 0.130088 0
1.067552 0.111067 0
1.037346 0.088628 0
1.006889 0.064557 0
0.973916 0.040476 0
0.937511 0.016616 0
0.900331 -0.009245 0
0.868508 -0.039866 0
0.849155 -0.075345 0
0.845550 -0.112106 0
0.856777 -0.143919 0
0.880213 -0.164357 0
0.913008 -0.168659 0
0.952365 -0.154505 0
0.995359 -0.122377 0
1.038712 -0.075751 0
1.078421 -0.021368 0
1.109066 0.031191 0
1.128178 0.075162 0
1.136420 0.108675 0
1.135106 0.131338 0
1.125844 0.143587 0
1.110293 0.146442 0
1.089982 0.141347 0
1.066141 0.130088 0
1.039568 0.114727 0
1.010650 0.097375 0
0.979739 0.079659 0
0.947840 0.062033 0
0.917163 0.043518 0
0.890904 0.022366 0
0.872067 -0.002798 0
0.862314 -0.031791 0
0.861743 -0.062298 0
0.869150 -0.090789 0
0.882809 -0.113889 0
0.901006 -0.128998 0
0.922187 -0.134402 0
0.944934 -0.129277 0
0.967924 -0.113715 0
0.989946 -0.088766 0
1.009921 -0.056453 0
1.026852 -0.019752 0
1.039576 0.017411 0
1.047166 0.051321 0
1.049331 0.079430 0
1.046131 0.100141 0
1.037852 0.112818 0
1.024930 0.117764 0
1.007939 0.116052 0
0.987653 0.109184 0
0.965159 0.098658 0
0.941933 0.085615 0
0.919777 0.070784 0
0.900560 0.054758 0
0.885845 0.037921 0
0.877100 0.027450 0
1.000000 0.000023 0
0.999503 -0.025650 0
0.999385 -0.054284 0
1.000081 -0.089003 0
1.003437 -0.133611 0
1.013704 -0.192743 0
1.040477 -0.269567 0
1.103293 -0.375055 0
1.266442 -0.391153 0
1.311669 -0.292451 0
1.296329 -0.206990 0
1.275898 -0.152471 0
1.260174 -0.116081 0
1.254004 -0.087300 0
1.259713 -0.055896 0
1.273769 -0.014925 0
1.282621 0.032371 0
1.279075 0.077637 0
1.264502 0.115859 0
1.240752 0.144370 0
1.209642 0.161584 0
1.173389 0.166661 0
1.134770 0.159704 0
1.096587 0.142091 0
1.060069 0.116384 0
1.023445 0.085336 0
0.983780 0.050953 0
0.941327 0.013702 0
0.900498 -0.029317 0
0.870756 -0.076557 0
0.864017 -0.119203 0
0.882735 -0.146947 0
0.923562 -0.149603 0
0.980364 -0.121493 0
1.044336 -0.065576 0
1.102926 0.002234 0
1.143056 0.062520 0
1.164519 0.108458 0
1.171862 0.141938 0
1.168102 0.164985 0
1.155475 0.179139 0
1.135816 0.185428 0
1.110703 0.184475 0
1.081425 0.176696 0
1.048723 0.162672 0
1.012308 0.143817 0
0.970721 0.122865 0
0.922659 0.102884 0
0.869773 0.084333 0
0.818345 0.062999 0
0.777129 0.032429 0
0.752210 -0.011222 0
0.744469 -0.064525 0
0.750641 -0.118046 0
0.766876 -0.162836 0
0.790662 -0.192858 0
0.820706 -0.204243 0
0.856058 -0.195015 0
0.895414 -0.165518 0
0.936875 -0.118804 0
0.977933 -0.060551 0
1.015004 0.000489 0
1.043281 0.055242 0
1.061673 0.099081 0
1.070498 0.130990 0
1.070612 0.151125 0
1.063080 0.160482 0
1.048920 0.160699 0
1.028908 0.153932 0
1.003548 0.142618 0
0.973401 0.128873 0
0.939774 0.113584 0
0.905337 0.095845 0
0.873934 0.073509 0
0.849416 0.044846 0
0.834214 0.010072 0
0.828505 -0.028467 0
0.830757 -0.067051 0
0.838990 -0.101747 0
0.851526 -0.129369 0
0.867133 -0.147623 0
0.884878 -0.154994 0
0.903932 -0.150734 0
0.923440 -0.134973 0
0.942513 -0.108829 0
0.960288 -0.074410 0
0.975963 -0.034704 0
0.988707 0.006451 0
0.997511 0.045103 0
1.001812 0.078249 0
1.001334 0.104029 0
0.995994 0.121622 0
0.985895 0.131158 0
0.971377 0.133470 0
0.953147 0.129705 0
0.932394 0.120902 0
0.910789 0.107791 0
0.890262 0.090937 0
0.872635 0.071154 0
0.859258 0.049215 0
0.851122 0.035512 0
1.000000 0.000026 0
0.998077 -0.024211 0
0.993418 -0.051687 0
0.985578 -0.086174 0
0.974697 -0.133180 0
0.962250 -0.201825 0
0.954484 -0.305959 0
0.973216 -0.497493 0
1.129920 -0.495509 0
1.111634 -0.277503 0
1.002378 -0.160221 0
0.938733 -0.114980 0
0.893369 -0.092191 0
0.868240 -0.080370 0
0.868766 -0.066452 0
0.894736 -0.032783 0
0.931863 0.022194 0
0.955643 0.080230 0
0.965597 0.129486 0
0.962543 0.167457 0
0.945911 0.192497 0
0.915697 0.203068 0
0.872367 0.198716 0
0.816766 0.181844 0
0.751282 0.158427 0
0.681598 0.134112 0
0.616770 0.107848 0
0.567331 0.072141 0
0.541744 0.019532 0
0.540248 -0.051207 0
0.559005 -0.125290 0
0.594652 -0.180678 0
0.644885 -0.204091 0
0.708060 -0.190255 0
0.781710 -0.141170 0
0.860551 -0.066582 0
0.932289 0.012655 0
0.984892 0.077936 0
1.019227 0.126686 0
1.038466 0.162260 0
1.044654 0.186791 0
1.039514 0.201620 0
1.024453 0.207725 0
1.000279 0.206217 0
0.966822 0.198981 0
0.923090 0.188845 0
0.868984 0.178053 0
0.808388 0.165281 0
0.750570 0.144566 0
0.706683 0.109036 0
0.683484 0.056666 0
0.680219 -0.007430 0
0.689677 -0.074000 0
0.704874 -0.134737 0
0.722595 -0.184165 0
0.742415 -0.218412 0
0.765286 -0.234279 0
0.792323 -0.229438 0
0.823852 -0.203418 0
0.859028 -0.158494 0
0.896044 -0.099722 0
0.932473 -0.034382 0
0.964308 0.028269 0
0.988373 0.081235 0
1.003917 0.122176 0
1.010919 0.150781 0
1.009694 0.167910 0
1.000630 0.175295 0
0.984101 0.175236 0
0.960686 0.170010 0
0.931734 0.160924 0
0.899923 0.147499 0
0.869158 0.127649 0
0.843494 0.099214 0
0.825700 0.061863 0
0.816510 0.017890 0
0.814947 -0.028559 0
0.819029 -0.073007 0
0.826871 -0.111782 0
0.837164 -0.142256 0
0.849159 -0.162574 0
0.862470 -0.171426 0
0.876835 -0.168064 0
0.891895 -0.152521 0
0.907111 -0.125839 0
0.921807 -0.090127 0
0.935279 -0.048395 0
0.946826 -0.004361 0
0.955526 0.037992 0
0.960652 0.075383 0
0.961698 0.105735 0
0.958347 0.128032 0
0.950508 0.142157 0
0.938425 0.148576 0
0.922813 0.147943 0
0.904908 0.140791 0
0.886337 0.127523 0
0.868822 0.108713 0
0.853838 0.085537 0
0.842391 0.059210 0
0.835258 0.042782 0
1.000000 0.000028 0
0.996700 -0.019609 0
0.987578 -0.042008 0
0.970967 -0.070506 0
0.944210 -0.110507 0
0.902526 -0.172754 0
0.837192 -0.280757 0
0.732989 -0.550715 0
0.547572 -0.529795 0
-0.000213 -0.165133 0
0.390791 -0.034313 0
0.314100 -0.043686 0
0.298635 -0.045812 0
0.316616 -0.062921 0
0.341161 -0.082617 0
0.382566 -0.078246 0
0.444691 -0.028760 0
0.508182 0.043678 0
0.552470 0.108736 0
0.577678 0.163832 0
0.580001 0.208205 0
0.557771 0.239981 0
0.511829 0.258411 0
0.446624 0.262952 0
0.372713 0.251328 0
0.307015 0.219623 0
0.266834 0.164996 0
0.261159 0.088504 0
0.287018 -0.002458 0
0.329558 -0.094042 0
0.373806 -0.173831 0
0.416922 -0.233051 0
0.462645 -0.263235 0
0.516008 -0.258541 0
0.580094 -0.218291 0
0.654297 -0.148569 0
0.733783 -0.062045 0
0.805453 0.021296 0
0.859319 0.088141 0
0.896298 0.139334 0
0.917815 0.177867 0
0.924880 0.205404 0
0.918155 0.223486 0
0.897821 0.234102 0
0.863934 0.239637 0
0.817964 0.241432 0
0.765132 0.237343 0
0.715066 0.221073 0
0.678338 0.185814 0
0.660870 0.129862 0
0.661425 0.058669 0
0.673902 -0.017640 0
0.690763 -0.089404 0
0.707193 -0.151187 0
0.721366 -0.200600 0
0.733695 -0.235773 0
0.746156 -0.254375 0
0.761379 -0.253805 0
0.781436 -0.232447 0
0.806842 -0.191220 0
0.836424 -0.134221 0
0.867942 -0.067999 0
0.898517 -0.000882 0
0.924106 0.059248 0
0.942817 0.108220 0
0.953802 0.145124 0
0.956693 0.170546 0
0.951401 0.186067 0
0.938218 0.193653 0
0.918206 0.194761 0
0.893658 0.189411 0
0.868106 0.175936 0
0.845486 0.152050 0
0.828804 0.116742 0
0.819223 0.071606 0
0.816198 0.020601 0
0.818263 -0.031210 0
0.823597 -0.079199 0
0.830664 -0.120106 0
0.838461 -0.151881 0
0.846542 -0.173153 0
0.854925 -0.182895 0
0.863874 -0.180383 0
0.873609 -0.165473 0
0.884064 -0.138965 0
0.894847 -0.102802 0
0.905342 -0.059947 0
0.914855 -0.014021 0
0.922561 0.031052 0
0.927638 0.071853 0
0.929460 0.106110 0
0.927594 0.132589 0
0.921880 0.150856 0
0.912545 0.160940 0
0.900286 0.162998 0
0.886233 0.157154 0
0.871738 0.143652 0
0.858097 0.123212 0
0.846335 0.097361 0
0.837152 0.067571 0
0.831305 0.048976 0
1.000000 0.000029 0
0.995769 -0.012331 0
0.983619 -0.026178 0
0.961038 -0.043030 0
0.923409 -0.064963 0
0.861496 -0.095032 0
0.755625 -0.136645 0
0.562662 -0.208096 0
0.074176 0.000536 0
-0.526943 0.128256 0
0.000000 0.000021 0
-0.034828 -0.034404 0
-0.055928 -0.094931 0
-0.035309 -0.123120 0
-0.031057 -0.132626 0
-0.016747 -0.136537 0
0.026116 -0.103646 0
0.099671 -0.027773 0
0.172044 0.059766 0
0.219576 0.139702 0
0.238358 0.212179 0
0.231407 0.271016 0
0.206189 0.309639 0
0.173580 0.320736 0
0.148964 0.297812 0
0.145918 0.239767 0
0.169763 0.153480 0
0.215703 0.051732 0
0.267763 -0.049092 0
0.312977 -0.138218 0
0.348101 -0.212878 0
0.374391 -0.269741 0
0.397266 -0.303401 0
0.424540 -0.307928 0
0.463322 -0.279684 0
0.516739 -0.220495 0
0.582525 -0.138724 0
0.653480 -0.047825 0
0.715888 0.035616 0
0.762258 0.103541 0
0.792616 0.157986 0
0.807139 0.201056 0
0.805999 0.234560 0
0.789795 0.260214 0
0.760703 0.278614 0
0.724034 0.287423 0
0.688576 0.280728 0
0.663931 0.251851 0
0.655904 0.198537 0
0.664000 0.125725 0
0.683115 0.043411 0
0.706325 -0.036992 0
0.727627 -0.107516 0
0.744080 -0.165564 0
0.754536 -0.210891 0
0.759457 -0.243426 0
0.760979 -0.262188 0
0.762625 -0.264941 0
0.768220 -0.249105 0
0.780302 -0.213706 0
0.799077 -0.161046 0
0.822679 -0.096699 0
0.848242 -0.028119 0
0.871993 0.036711 0
0.890888 0.092255 0