# vtk DataFile Version 2.0
generated by CFD-lab course output (written by Tobias Neckel) 
ASCII

DATASET STRUCTURED_GRID
DIMENSIONS  101 21 1 
POINTS 2121 float

0.000000 0.000000 0
0.100000 0.000000 0
0.200000 0.000000 0
0.300000 0.000000 0
0.400000 0.000000 0
0.500000 0.000000 0
0.600000 0.000000 0
0.700000 0.000000 0
0.800000 0.000000 0
0.900000 0.000000 0
1.000000 0.000000 0
1.100000 0.000000 0
1.200000 0.000000 0
1.300000 0.000000 0
1.400000 0.000000 0
1.500000 0.000000 0
1.600000 0.000000 0
1.700000 0.000000 0
1.800000 0.000000 0
1.900000 0.000000 0
2.000000 0.000000 0
2.100000 0.000000 0
2.200000 0.000000 0
2.300000 0.000000 0
2.400000 0.000000 0
2.500000 0.000000 0
2.600000 0.000000 0
2.700000 0.000000 0
2.800000 0.000000 0
2.900000 0.000000 0
3.000000 0.000000 0
3.100000 0.000000 0
3.200000 0.000000 0
3.300000 0.000000 0
3.400000 0.000000 0
3.500000 0.000000 0
3.600000 0.000000 0
3.700000 0.000000 0
3.800000 0.000000 0
3.900000 0.000000 0
4.000000 0.000000 0
4.100000 0.000000 0
4.200000 0.000000 0
4.300000 0.000000 0
4.400000 0.000000 0
4.500000 0.000000 0
4.600000 0.000000 0
4.700000 0.000000 0
4.800000 0.000000 0
4.900000 0.000000 0
5.000000 0.000000 0
5.100000 0.000000 0
5.200000 0.000000 0
5.300000 0.000000 0
5.400000 0.000000 0
5.500000 0.000000 0
5.600000 0.000000 0
5.700000 0.000000 0
5.800000 0.000000 0
5.900000 0.000000 0
6.000000 0.000000 0
6.100000 0.000000 0
6.200000 0.000000 0
6.300000 0.000000 0
6.400000 0.000000 0
6.500000 0.000000 0
6.600000 0.000000 0
6.700000 0.000000 0
6.800000 0.000000 0
6.900000 0.000000 0
7.000000 0.000000 0
7.100000 0.000000 0
7.200000 0.000000 0
7.300000 0.000000 0
7.400000 0.000000 0
7.500000 0.000000 0
7.600000 0.000000 0
7.700000 0.000000 0
7.800000 0.000000 0
7.900000 0.000000 0
8.000000 0.000000 0
8.100000 0.000000 0
8.200000 0.000000 0
8.300000 0.000000 0
8.400000 0.000000 0
8.500000 0.000000 0
8.600000 0.000000 0
8.700000 0.000000 0
8.800000 0.000000 0
8.900000 0.000000 0
9.000000 0.000000 0
9.100000 0.000000 0
9.200000 0.000000 0
9.300000 0.000000 0
9.400000 0.000000 0
9.500000 0.000000 0
9.600000 0.000000 0
9.700000 0.000000 0
9.800000 0.000000 0
9.900000 0.000000 0
10.000000 0.000000 0
0.000000 0.100000 0
0.100000 0.100000 0
0.200000 0.100000 0
0.300000 0.100000 0
0.400000 0.100000 0
0.500000 0.100000 0
0.600000 0.100000 0
0.700000 0.100000 0
0.800000 0.100000 0
0.900000 0.100000 0
1.000000 0.100000 0
1.100000 0.100000 0
1.200000 0.100000 0
1.300000 0.100000 0
1.400000 0.100000 0
1.500000 0.100000 0
1.600000 0.100000 0
1.700000 0.100000 0
1.800000 0.100000 0
1.900000 0.100000 0
2.000000 0.100000 0
2.100000 0.100000 0
2.200000 0.100000 0
2.300000 0.100000 0
2.400000 0.100000 0
2.500000 0.100000 0
2.600000 0.100000 0
2.700000 0.100000 0
2.800000 0.100000 0
2.900000 0.100000 0
3.000000 0.100000 0
3.100000 0.100000 0
3.200000 0.100000 0
3.300000 0.100000 0
3.400000 0.100000 0
3.500000 0.100000 0
3.600000 0.100000 0
3.700000 0.100000 0
3.800000 0.100000 0
3.900000 0.100000 0
4.000000 0.100000 0
4.100000 0.100000 0
4.200000 0.100000 0
4.300000 0.100000 0
4.400000 0.100000 0
4.500000 0.100000 0
4.600000 0.100000 0
4.700000 0.100000 0
4.800000 0.100000 0
4.900000 0.100000 0
5.000000 0.100000 0
5.100000 0.100000 0
5.200000 0.100000 0
5.300000 0.100000 0
5.400000 0.100000 0
5.500000 0.100000 0
5.600000 0.100000 0
5.700000 0.100000 0
5.800000 0.100000 0
5.900000 0.100000 0
6.000000 0.100000 0
6.100000 0.100000 0
6.200000 0.100000 0
6.300000 0.100000 0
6.400000 0.100000 0
6.500000 0.100000 0
6.600000 0.100000 0
6.700000 0.100000 0
6.800000 0.100000 0
6.900000 0.100000 0
7.000000 0.100000 0
7.100000 0.100000 0
7.200000 0.100000 0
7.300000 0.100000 0
7.400000 0.100000 0
7.500000 0.100000 0
7.600000 0.100000 0
7.700000 0.100000 0
7.800000 0.100000 0
7.900000 0.100000 0
8.000000 0.100000 0
8.100000 0.100000 0
8.200000 0.100000 0
8.300000 0.100000 0
8.400000 0.100000 0
8.500000 0.100000 0
8.600000 0.100000 0
8.700000 0.100000 0
8.800000 0.100000 0
8.900000 0.100000 0
9.000000 0.100000 0
9.100000 0.100000 0
9.200000 0.100000 0
9.300000 0.100000 0
9.400000 0.100000 0
9.500000 0.100000 0
9.600000 0.100000 0
9.700000 0.100000 0
9.800000 0.100000 0
9.900000 0.100000 0
10.000000 0.100000 0
0.000000 0.200000 0
0.100000 0.200000 0
0.200000 0.200000 0
0.300000 0.200000 0
0.400000 0.200000 0
0.500000 0.200000 0
0.600000 0.200000 0
0.700000 0.200000 0
0.800000 0.200000 0
0.900000 0.200000 0
1.000000 0.200000 0
1.100000 0.200000 0
1.200000 0.200000 0
1.300000 0.200000 0
1.400000 0.200000 0
1.500000 0.200000 0
1.600000 0.200000 0
1.700000 0.200000 0
1.800000 0.200000 0
1.900000 0.200000 0
2.000000 0.200000 0
2.100000 0.200000 0
2.200000 0.200000 0
2.300000 0.200000 0
2.400000 0.200000 0
2.500000 0.200000 0
2.600000 0.200000 0
2.700000 0.200000 0
2.800000 0.200000 0
2.900000 0.200000 0
3.000000 0.200000 0
3.100000 0.200000 0
3.200000 0.200000 0
3.300000 0.200000 0
3.400000 0.200000 0
3.500000 0.200000 0
3.600000 0.200000 0
3.700000 0.200000 0
3.800000 0.200000 0
3.900000 0.200000 0
4.000000 0.200000 0
4.100000 0.200000 0
4.200000 0.200000 0
4.300000 0.200000 0
4.400000 0.200000 0
4.500000 0.200000 0
4.600000 0.200000 0
4.700000 0.200000 0
4.800000 0.200000 0
4.900000 0.200000 0
5.000000 0.200000 0
5.100000 0.200000 0
5.200000 0.200000 0
5.300000 0.200000 0
5.400000 0.200000 0
5.500000 0.200000 0
5.600000 0.200000 0
5.700000 0.200000 0
5.800000 0.200000 0
5.900000 0.200000 0
6.000000 0.200000 0
6.100000 0.200000 0
6.200000 0.200000 0
6.300000 0.200000 0
6.400000 0.200000 0
6.500000 0.200000 0
6.600000 0.200000 0
6.700000 0.200000 0
6.800000 0.200000 0
6.900000 0.200000 0
7.000000 0.200000 0
7.100000 0.200000 0
7.200000 0.200000 0
7.300000 0.200000 0
7.400000 0.200000 0
7.500000 0.200000 0
7.600000 0.200000 0
7.700000 0.200000 0
7.800000 0.200000 0
7.900000 0.200000 0
8.000000 0.200000 0
8.100000 0.200000 0
8.200000 0.200000 0
8.300000 0.200000 0
8.400000 0.200000 0
8.500000 0.200000 0
8.600000 0.200000 0
8.700000 0.200000 0
8.800000 0.200000 0
8.900000 0.200000 0
9.000000 0.200000 0
9.100000 0.200000 0
9.200000 0.200000 0
9.300000 0.200000 0
9.400000 0.200000 0
9.500000 0.200000 0
9.600000 0.200000 0
9.700000 0.200000 0
9.800000 0.200000 0
9.900000 0.200000 0
10.000000 0.200000 0
0.000000 0.300000 0
0.100000 0.300000 0
0.200000 0.300000 0
0.300000 0.300000 0
0.400000 0.300000 0
0.500000 0.300000 0
0.600000 0.300000 0
0.700000 0.300000 0
0.800000 0.300000 0
0.900000 0.300000 0
1.000000 0.300000 0
1.100000 0.300000 0
1.200000 0.300000 0
1.300000 0.300000 0
1.400000 0.300000 0
1.500000 0.300000 0
1.600000 0.300000 0
1.700000 0.300000 0
1.800000 0.300000 0
1.900000 0.300000 0
2.000000 0.300000 0
2.100000 0.300000 0
2.200000 0.300000 0
2.300000 0.300000 0
2.400000 0.300000 0
2.500000 0.300000 0
2.600000 0.300000 0
2.700000 0.300000 0
2.800000 0.300000 0
2.900000 0.300000 0
3.000000 0.300000 0
3.100000 0.300000 0
3.200000 0.300000 0
3.300000 0.300000 0
3.400000 0.300000 0
3.500000 0.300000 0
3.600000 0.300000 0
3.700000 0.300000 0
3.800000 0.300000 0
3.900000 0.300000 0
4.000000 0.300000 0
4.100000 0.300000 0
4.200000 0.300000 0
4.300000 0.300000 0
4.400000 0.300000 0
4.500000 0.300000 0
4.600000 0.300000 0
4.700000 0.300000 0
4.800000 0.300000 0
4.900000 0.300000 0
5.000000 0.300000 0
5.100000 0.300000 0
5.200000 0.300000 0
5.300000 0.300000 0
5.400000 0.300000 0
5.500000 0.300000 0
5.600000 0.300000 0
5.700000 0.300000 0
5.800000 0.300000 0
5.900000 0.300000 0
6.000000 0.300000 0
6.100000 0.300000 0
6.200000 0.300000 0
6.300000 0.300000 0
6.400000 0.300000 0
6.500000 0.300000 0
6.600000 0.300000 0
6.700000 0.300000 0
6.800000 0.300000 0
6.900000 0.300000 0
7.000000 0.300000 0
7.100000 0.300000 0
7.200000 0.300000 0
7.300000 0.300000 0
7.400000 0.300000 0
7.500000 0.300000 0
7.600000 0.300000 0
7.700000 0.300000 0
7.800000 0.300000 0
7.900000 0.300000 0
8.000000 0.300000 0
8.100000 0.300000 0
8.200000 0.300000 0
8.300000 0.300000 0
8.400000 0.300000 0
8.500000 0.300000 0
8.600000 0.300000 0
8.700000 0.300000 0
8.800000 0.300000 0
8.900000 0.300000 0
9.000000 0.300000 0
9.100000 0.300000 0
9.200000 0.300000 0
9.300000 0.300000 0
9.400000 0.300000 0
9.500000 0.300000 0
9.600000 0.300000 0
9.700000 0.300000 0
9.800000 0.300000 0
9.900000 0.300000 0
10.000000 0.300000 0
0.000000 0.400000 0
0.100000 0.400000 0
0.200000 0.400000 0
0.300000 0.400000 0
0.400000 0.400000 0
0.500000 0.400000 0
0.600000 0.400000 0
0.700000 0.400000 0
0.800000 0.400000 0
0.900000 0.400000 0
1.000000 0.400000 0
1.100000 0.400000 0
1.200000 0.400000 0
1.300000 0.400000 0
1.400000 0.400000 0
1.500000 0.400000 0
1.600000 0.400000 0
1.700000 0.400000 0
1.800000 0.400000 0
1.900000 0.400000 0
2.000000 0.400000 0
2.100000 0.400000 0
2.200000 0.400000 0
2.300000 0.400000 0
2.400000 0.400000 0
2.500000 0.400000 0
2.600000 0.400000 0
2.700000 0.400000 0
2.800000 0.400000 0
2.900000 0.400000 0
3.000000 0.400000 0
3.100000 0.400000 0
3.200000 0.400000 0
3.300000 0.400000 0
3.400000 0.400000 0
3.500000 0.400000 0
3.600000 0.400000 0
3.700000 0.400000 0
3.800000 0.400000 0
3.900000 0.400000 0
4.000000 0.400000 0
4.100000 0.400000 0
4.200000 0.400000 0
4.300000 0.400000 0
4.400000 0.400000 0
4.500000 0.400000 0
4.600000 0.400000 0
4.700000 0.400000 0
4.800000 0.400000 0
4.900000 0.400000 0
5.000000 0.400000 0
5.100000 0.400000 0
5.200000 0.400000 0
5.300000 0.400000 0
5.400000 0.400000 0
5.500000 0.400000 0
5.600000 0.400000 0
5.700000 0.400000 0
5.800000 0.400000 0
5.900000 0.400000 0
6.000000 0.400000 0
6.100000 0.400000 0
6.200000 0.400000 0
6.300000 0.400000 0
6.400000 0.400000 0
6.500000 0.400000 0
6.600000 0.400000 0
6.700000 0.400000 0
6.800000 0.400000 0
6.900000 0.400000 0
7.000000 0.400000 0
7.100000 0.400000 0
7.200000 0.400000 0
7.300000 0.400000 0
7.400000 0.400000 0
7.500000 0.400000 0
7.600000 0.400000 0
7.700000 0.400000 0
7.800000 0.400000 0
7.900000 0.400000 0
8.000000 0.400000 0
8.100000 0.400000 0
8.200000 0.400000 0
8.300000 0.400000 0
8.400000 0.400000 0
8.500000 0.400000 0
8.600000 0.400000 0
[...]
POINT_DATA 2121 

VECTORS velocity float
0.500000 0.000000 0
-0.000002 0.000000 0
-0.000008 0.000000 0
-0.000016 0.000000 0
-0.000023 0.000000 0
-0.000026 0.000000 0
-0.000022 0.000000 0
-0.000006 0.000000 0
0.000027 0.000000 0
0.000081 0.000000 0
0.000159 0.000000 0
0.000261 0.000000 0
0.000381 0.000000 0
0.000506 0.000000 0
0.000618 0.000000 0
0.000693 0.000000 0
0.000707 0.000000 0
0.000642 0.000000 0
0.000480 0.000000 0
0.000215 0.000000 0
-0.000152 0.000000 0
-0.000607 0.000000 0
-0.001126 0.000000 0
-0.001669 0.000000 0
-0.002175 0.000000 0
-0.002546 0.000000 0
-0.002676 0.000000 0
-0.002490 0.000000 0
-0.001985 0.000000 0
-0.001241 0.000000 0
-0.000356 0.000000 0
0.000568 0.000000 0
0.001440 0.000000 0
0.002197 0.000000 0
0.002802 0.000000 0
0.003233 0.000000 0
0.003484 0.000000 0
0.003551 0.000000 0
0.003433 0.000000 0
0.003128 0.000000 0
0.002636 0.000000 0
0.001951 0.000000 0
0.001061 0.000000 0
-0.000046 0.000000 0
-0.001329 0.000000 0
-0.002659 0.000000 0
-0.003935 0.000000 0
-0.005039 0.000000 0
-0.005826 0.000000 0
-0.006151 0.000000 0
-0.005892 0.000000 0
-0.005004 0.000000 0
-0.003568 0.000000 0
-0.001817 0.000000 0
-0.000050 0.000000 0
0.001598 0.000000 0
0.003039 0.000000 0
0.004200 0.000000 0
0.005035 0.000000 0
0.005529 0.000000 0
0.005688 0.000000 0
0.005530 0.000000 0
0.005080 0.000000 0
0.004358 0.000000 0
0.003389 0.000000 0
0.002206 0.000000 0
0.000873 0.000000 0
-0.000471 0.000000 0
-0.001642 0.000000 0
-0.002626 0.000000 0
-0.003452 0.000000 0
-0.004148 0.000000 0
-0.004727 0.000000 0
-0.005173 0.000000 0
-0.005435 0.000000 0
-0.005424 0.000000 0
-0.005035 0.000000 0
-0.004190 0.000000 0
-0.002901 0.000000 0
-0.001318 0.000000 0
0.000349 0.000000 0
0.002007 0.000000 0
0.003555 0.000000 0
0.004881 0.000000 0
0.005871 0.000000 0
0.006419 0.000000 0
0.006441 0.000000 0
0.005902 0.000000 0
0.004853 0.000000 0
0.003439 0.000000 0
0.001878 0.000000 0
0.000411 0.000000 0
-0.000728 0.000000 0
-0.001469 0.000000 0
-0.001927 0.000000 0
-0.002207 0.000000 0
-0.002386 0.000000 0
-0.002521 0.000000 0
-0.002645 0.000000 0
-0.002778 0.000000 0
-0.003035 0.000000 0
1.000000 0.000003 0
1.002656 -0.004852 0
1.010942 -0.010524 0
1.025268 -0.016695 0
1.046078 -0.023147 0
1.073639 -0.029488 0
1.107730 -0.035027 0
1.147218 -0.038814 0
1.189761 -0.039871 0
1.231667 -0.037793 0
1.269495 -0.033071 0
1.301004 -0.026633 0
1.325099 -0.019359 0
1.341457 -0.011915 0
1.350261 -0.004807 0
1.352099 0.001558 0
1.347908 0.006862 0
1.338909 0.010858 0
1.326561 0.013363 0
1.312480 0.014284 0
1.298324 0.013636 0
1.285681 0.011549 0
1.275945 0.008264 0
1.270218 0.004136 0
1.269187 -0.000315 0
1.272912 -0.004322 0
1.280558 -0.006990 0
1.290301 -0.007603 0
1.299615 -0.005903 0
1.305923 -0.002203 0
1.307279 0.002857 0
1.302678 0.008561 0
1.291940 0.014241 0
1.275505 0.019379 0
1.254217 0.023634 0
1.229147 0.026809 0
1.201477 0.028802 0
1.172439 0.029568 0
1.143281 0.029085 0
1.115260 0.027341 0
1.089633 0.024322 0
1.067649 0.019989 0
1.050526 0.014258 0
1.039406 0.007071 0
1.035291 -0.001288 0
1.038982 -0.010121 0
1.050920 -0.018666 0
1.070944 -0.026151 0
1.098071 -0.031715 0
1.130425 -0.034496 0
1.165286 -0.033804 0
1.199240 -0.029358 0
1.228521 -0.021561 0
1.249647 -0.011623 0
1.260255 -0.001103 0
1.259750 0.008922 0
1.248988 0.017878 0
1.229431 0.025316 0
1.202920 0.030926 0
1.171491 0.034557 0
1.137232 0.036180 0
1.102180 0.035849 0
1.068256 0.033644 0
1.037228 0.029652 0
1.010645 0.023981 0
0.989739 0.016829 0
0.975288 0.008613 0
0.967540 0.000200 0
0.966323 -0.007402 0
0.971119 -0.013764 0
0.981258 -0.018971 0
0.996089 -0.023192 0
1.015028 -0.026534 0
1.037537 -0.028965 0
1.063010 -0.030260 0
1.090569 -0.029992 0
1.118849 -0.027633 0
1.145887 -0.022777 0
1.169208 -0.015473 0
1.186117 -0.006448 0
1.194262 0.003265 0
1.192462 0.012921 0
1.180972 0.021983 0
1.160740 0.029839 0
1.133322 0.035849 0
1.100829 0.039386 0
1.065815 0.039927 0
1.031069 0.037207 0
0.999288 0.031413 0
0.972648 0.023291 0
0.952439 0.014060 0
0.938915 0.005160 0
0.931486 -0.002033 0
0.929126 -0.006913 0
0.930571 -0.009832 0
0.934576 -0.011361 0
0.940171 -0.011915 0
0.946650 -0.011692 0
0.953431 -0.010662 0
0.959882 -0.007747 0
0.963979 -0.005825 0
1.000000 0.000005 0
1.002976 -0.010966 0
1.011722 -0.022628 0
1.026608 -0.035152 0
1.048305 -0.048386 0
1.077519 -0.061667 0
1.114587 -0.073594 0
1.158784 -0.082047 0
1.207735 -0.084465 0
1.255567 -0.079750 0
1.297531 -0.069352 0
1.331453 -0.055619 0
1.356795 -0.040468 0
1.373659 -0.025178 0
1.382411 -0.010658 0
1.383750 0.002338 0
1.378686 0.013175 0
1.368514 0.021331 0
1.354807 0.026414 0
1.339320 0.028222 0
1.323872 0.026784 0
1.310199 0.022363 0
1.299829 0.015447 0
1.294022 0.006742 0
1.293736 -0.002709 0
1.299370 -0.011387 0
1.310240 -0.017405 0
1.324227 -0.019072 0
1.338060 -0.015637 0
1.348270 -0.007680 0
1.352397 0.003229 0
1.349539 0.015323 0
1.339800 0.027158 0
1.323917 0.037708 0
1.302966 0.046343 0
1.278153 0.052724 0
1.250715 0.056692 0
1.221876 0.058181 0
1.192843 0.057164 0
1.164806 0.053633 0
1.138931 0.047595 0
1.116331 0.039092 0
1.098005 0.028228 0
1.084784 0.015219 0
1.077343 0.000408 0
1.076463 -0.015644 0
1.082897 -0.031977 0
1.096944 -0.047167 0
1.118274 -0.059496 0
1.145966 -0.067230 0
1.178506 -0.068831 0
1.213588 -0.063252 0
1.247907 -0.050423 0
1.277314 -0.031749 0
1.297581 -0.010119 0
1.305962 0.011251 0
1.302701 0.030303 0
1.289468 0.046053 0
1.268301 0.057925 0
1.241386 0.065672 0
1.210899 0.069295 0
1.178891 0.068960 0
1.147204 0.064936 0
1.117400 0.057595 0
1.090675 0.047473 0
1.067793 0.035341 0
1.049069 0.022183 0
1.034503 0.008949 0
1.024165 -0.003595 0
1.018203 -0.014951 0
1.016558 -0.024986 0
1.019118 -0.033786 0
1.025882 -0.041464 0
1.037015 -0.047998 0
1.052732 -0.053048 0
1.073002 -0.055854 0
1.097240 -0.055334 0
1.124141 -0.050375 0
1.151652 -0.040246 0
1.177005 -0.025070 0
1.196947 -0.006361 0
1.208588 0.013274 0
1.210858 0.031707 0
1.204370 0.047635 0
1.190372 0.059894 0
1.170556 0.067491 0
1.146852 0.069744 0
1.121191 0.066512 0
1.095270 0.058405 0
1.070402 0.046833 0
1.047474 0.033717 0
1.027027 0.020936 0
1.009420 0.009773 0
0.995005 0.000899 0
0.983763 -0.005465 0
0.975301 -0.009615 0
0.969140 -0.012090 0
0.964961 -0.013276 0
0.962638 -0.013249 0
0.962106 -0.010564 0
0.963239 -0.008821 0
1.000000 0.000008 0
1.002575 -0.016589 0
1.010498 -0.034162 0
1.024429 -0.053285 0
1.045541 -0.074064 0
1.075401 -0.095776 0
1.115582 -0.116298 0
1.166522 -0.131969 0
1.226947 -0.136660 0
1.284071 -0.127595 0
1.330710 -0.108963 0
1.365975 -0.085904 0
1.391018 -0.061571 0
1.406811 -0.037538 0
1.413829 -0.014904 0
1.412776 0.005278 0
1.404658 0.022091 0
1.390851 0.034730 0
1.373119 0.042551 0
1.353484 0.045212 0
1.334058 0.042751 0
1.316842 0.035585 0
1.303565 0.024434 0
1.295650 0.010223 0
1.294412 -0.005670 0
1.300978 -0.020832 0
1.315139 -0.031853 0
1.334506 -0.035429 0
1.354681 -0.029953 0
1.370513 -0.016548 0
1.378198 0.001582 0
1.376800 0.021153 0
1.367069 0.039856 0
1.350368 0.056206 0
1.328225 0.069392 0
1.302103 0.079053 0
1.273322 0.085072 0
1.243085 0.087433 0
1.212513 0.086148 0
1.182684 0.081247 0
1.154641 0.072792 0
1.129374 0.060909 0
1.107772 0.045799 0
1.090555 0.027726 0
1.078225 0.007026 0
1.071103 -0.015682 0
1.069551 -0.039154 0
1.073911 -0.061535 0
1.084515 -0.080743 0
1.101854 -0.094734 0
1.126346 -0.101433 0
1.157536 -0.098765 0
1.193385 -0.085294 0
1.230047 -0.061303 0
1.262260 -0.029757 0
1.284528 0.003795 0
1.293727 0.034365 0
1.291066 0.059710 0
1.278693 0.079002 0
1.258920 0.091951 0
1.234008 0.098669 0
1.206030 0.099537 0
1.176784 0.095128 0
1.147723 0.086174 0
1.119945 0.073582 0
1.094219 0.058429 0
1.071058 0.041897 0
1.050748 0.025097 0
1.033278 0.008891 0
1.018469 -0.006163 0
1.006184 -0.019892 0
0.996731 -0.032523 0
0.991039 -0.044438 0
0.990388 -0.055822 0
0.996005 -0.066254 0
1.008480 -0.074506 0
1.027465 -0.078779 0
1.051759 -0.077196 0
1.079545 -0.068344 0
1.108584 -0.051750 0
1.136278 -0.028325 0
1.159537 -0.000996 0
1.175345 0.026194 0
1.182887 0.050318 0
1.182663 0.069656 0
1.175634 0.082899 0
1.162992 0.089286 0
1.145955 0.088783 0
1.125658 0.082195 0
1.103165 0.071081 0
1.079533 0.057429 0
1.055809 0.043208 0
1.032884 0.029983 0
1.011285 0.018738 0
0.991328 0.009866 0
0.973274 0.003255 0
0.957411 -0.001581 0
0.944176 -0.005197 0
0.934131 -0.007814 0
0.927784 -0.008355 0
0.926402 -0.008887 0
1.000000 0.000011 0
1.002040 -0.021480 0
1.008488 -0.044488 0
1.020288 -0.070202 0
1.039236 -0.099365 0
1.068147 -0.131713 0
1.110843 -0.164721 0
1.170700 -0.193419 0
1.252248 -0.202021 0
1.321163 -0.183519 0
1.369119 -0.151262 0
1.401278 -0.115934 0
1.422811 -0.081310 0
1.435967 -0.047994 0
1.440613 -0.016629 0
1.436625 0.011502 0
1.424584 0.035093 0
1.405871 0.052863 0
1.382504 0.063774 0
1.356900 0.067277 0
1.331622 0.063419 0
1.309072 0.052850 0
1.291187 0.036632 0
1.279313 0.015889 0
1.274520 -0.008044 0
1.278756 -0.032120 0
1.293229 -0.050938 0
1.316403 -0.058621 0
1.343902 -0.051651 0
1.369002 -0.031203 0
1.384601 -0.003064 0
1.387371 0.026446 0
1.379101 0.053583 0
1.362322 0.076545 0
1.339345 0.094602 0
1.312034 0.107621 0
1.281849 0.115703 0
1.249984 0.118983 0
1.217499 0.117558 0
1.185400 0.111498 0
1.154683 0.100899 0
1.126317 0.085954 0
1.101135 0.067041 0
1.079551 0.044759 0
1.061204 0.019853 0
1.044979 -0.006977 0
1.029986 -0.034793 0
1.017292 -0.062137 0
1.009564 -0.087446 0
1.010150 -0.109068 0
1.021838 -0.124520 0
1.045410 -0.130297 0
1.079367 -0.122941 0
1.120289 -0.100630 0
1.163188 -0.064606 0
1.201783 -0.020222 0
1.229379 0.023759 0
1.243250 0.061079 0
1.245135 0.090064 0
1.237244 0.110351 0
1.221834 0.122179 0
1.201029 0.126178 0
1.176707 0.123237 0
1.150445 0.114428 0
1.123503 0.100970 0
1.096825 0.084222 0
1.071008 0.065648 0
1.046218 0.046722 0
1.022195 0.028678 0
0.998567 0.012137 0
0.975547 -0.003255 0
0.954416 -0.018648 0
0.937608 -0.035127 0
0.927939 -0.052971 0
0.927147 -0.071147 0
0.935383 -0.087320 0
0.951591 -0.098620 0
0.974119 -0.102461 0
1.001130 -0.097078 0
1.030768 -0.081811 0
1.061150 -0.057320 0
1.090183 -0.025800 0
1.115016 0.008349 0
1.132984 0.040310 0
1.143564 0.067141 0
1.146966 0.087155 0
1.143731 0.099417 0
1.134569 0.103840 0
1.120283 0.101188 0
1.101776 0.092951 0
1.080041 0.081066 0
1.056078 0.067579 0
1.030773 0.054290 0
1.004861 0.042449 0
0.979073 0.032540 0
0.954357 0.024295 0
0.931953 0.017001 0
0.913174 0.009998 0
0.899092 0.003136 0
0.890298 -0.002842 0
0.887719 -0.007008 0
1.000000 0.000014 0
1.001205 -0.025092 0
1.005159 -0.052417 0
1.012915 -0.084040 0
1.026688 -0.121929 0
1.050577 -0.167390 0
1.091667 -0.218858 0
1.159679 -0.273380 0
1.277650 -0.287129 0
1.351338 -0.244472 0
1.385448 -0.189085 0
1.402481 -0.139602 0
1.413613 -0.096266 0
1.422007 -0.055346 0
1.425082 -0.015569 0
1.419213 0.021300 0
1.403891 0.052839 0
1.380400 0.076804 0
1.351015 0.091515 0
1.318570 0.096087 0
1.286144 0.090573 0
1.256626 0.076014 0
1.232071 0.054187 0
1.213302 0.026884 0
1.200149 -0.005120 0
1.193312 -0.039548 0
1.197367 -0.069507 0
1.214427 -0.086110 0
1.243644 -0.082558 0
1.279727 -0.057253 0
1.312637 -0.016794 0
1.331325 0.026647 0
1.333981 0.064898 0
1.325100 0.095955 0
1.308140 0.119673 0
1.285445 0.136543 0
1.258622 0.147116 0
1.228887 0.151776 0
1.197295 0.150725 0
1.164850 0.144056 0
1.132562 0.131868 0
1.101405 0.114450 0
1.072066 0.092559 0
1.044326 0.067651 0
1.016437 0.041591 0
0.985804 0.015529 0
0.951555 -0.011473 0
0.917188 -0.041119 0
0.890695 -0.073607 0
0.879015 -0.107014 0
0.884082 -0.136700 0
0.904425 -0.156301 0
0.937261 -0.160179 0
0.979345 -0.145131 0
1.026974 -0.111257 0
1.075675 -0.062402 0
1.119571 -0.007109 0
1.151794 0.043947 0
1.170878 0.085001 0
1.178344 0.115246 0
1.176037 0.134878 0
1.165877 0.144658 0
1.149680 0.145705 0
1.129057 0.139372 0
1.105321 0.127195 0
1.079365 0.110918 0
1.051523 0.092498 0
1.021617 0.073903 0
0.989469 0.056535 0
0.955853 0.040478 0
0.923174 0.024252 0
0.895010 0.005408 0
0.874765 -0.017968 0
0.864551 -0.045367 0
0.864535 -0.073704 0
0.873376 -0.098957 0
0.889270 -0.117522 0
0.910547 -0.126742 0
0.935783 -0.125000 0
0.963700 -0.111776 0
0.993048 -0.087746 0
1.022487 -0.054868 0
1.050384 -0.016613 0
1.073994 0.021763 0
1.091382 0.055668 0
1.102039 0.082726 0
1.105909 0.101676 0
1.103230 0.112224 0
1.094448 0.114980 0
1.080160 0.111316 0
1.061063 0.103121 0
1.037912 0.092470 0
1.011550 0.081194 0
0.983049 0.070431 0
0.953892 0.060363 0
0.925963 0.050369 0
0.901271 0.039595 0
0.881480 0.027658 0
0.867508 0.015056 0
0.859431 0.003011 0
0.856904 -0.004771 0
1.000000 0.000018 0
1.000012 -0.026654 0
1.000273 -0.056205 0
1.001530 -0.091737 0
1.005653 -0.137032 0
1.016949 -0.196699 0
1.045142 -0.273831 0
1.110008 -0.379408 0
1.276558 -0.393686 0
1.323824 -0.291324 0
1.310533 -0.202412 0
1.293626 -0.144105 0
1.284601 -0.100843 0
1.286181 -0.059469 0
1.292177 -0.013841 0
1.289481 0.032687 0
1.275375 0.073900 0
1.251162 0.105732 0
1.218989 0.125598 0
1.181578 0.132142 0
1.142283 0.125357 0
1.104421 0.106917 0
1.069618 0.079950 0
1.036975 0.047804 0
1.005415 0.011940 0
0.976168 -0.029344 0
0.956732 -0.072060 0
0.959026 -0.104903 0
0.985924 -0.116957 0
1.032834 -0.100203 0
1.089993 -0.054668 0
1.143068 0.005095 0
1.177946 0.059802 0
1.194801 0.102380 0
1.198983 0.134250 0
1.193537 0.157132 0
1.180358 0.172254 0
1.160871 0.180304 0
1.136327 0.181589 0
1.107858 0.176224 0
1.076313 0.164337 0
1.041799 0.146443 0
1.003149 0.124114 0
0.958340 0.100382 0
0.906895 0.078369 0
0.852712 0.057898 0
0.803744 0.033817 0
0.767775 -0.001283 0
0.749158 -0.049280 0
0.747596 -0.102461 0
0.759913 -0.149935 0
0.783099 -0.183483 0
0.815240 -0.197867 0
0.854955 -0.190350 0
0.900590 -0.160943 0
0.949767 -0.112825 0
0.999139 -0.052366 0
1.043135 0.009765 0
1.075936 0.063507 0
1.097084 0.105185 0
1.107506 0.134639 0
1.108495 0.152529 0
1.101442 0.160050 0
1.087636 0.158780 0
1.068047 0.150655 0
1.043149 0.138013 0
1.012965 0.123390 0
0.977650 0.108769 0
0.938558 0.094435 0
0.899049 0.078426 0
0.864001 0.057582 0
0.837999 0.029755 0
0.823296 -0.004675 0
0.819227 -0.042747 0
0.823578 -0.079979 0
0.834090 -0.112062 0
0.849162 -0.135797 0
0.867836 -0.148980 0
0.889511 -0.150237 0
0.913636 -0.139082 0
0.939522 -0.116114 0
0.966279 -0.083143 0
0.992803 -0.043164 0
1.017496 -0.000694 0
1.037819 0.039089 0
1.052501 0.072622 0
1.060944 0.098220 0
1.062930 0.115294 0
1.058498 0.124251 0
1.047872 0.126329 0
1.031443 0.123307 0
1.009834 0.117085 0
0.984063 0.109147 0
0.955718 0.100100 0
0.926951 0.089620 0
0.900151 0.076909 0
0.877406 0.061477 0
0.860017 0.043754 0
0.848339 0.025179 0
0.841943 0.007756 0
0.839932 -0.002974 0
1.000000 0.000021 0
0.998563 -0.025380 0
0.994220 -0.053941 0
0.986840 -0.089426 0
0.976590 -0.137355 0
0.965010 -0.206885 0
0.958494 -0.311923 0
0.979202 -0.504803 0
1.139455 -0.500952 0
1.122785 -0.278453 0
1.015239 -0.158893 0
0.954236 -0.113676 0
0.919786 -0.088827 0
0.915621 -0.062928 0
0.934520 -0.018875 0
0.951152 0.038095 0
0.952942 0.091151 0
0.940968 0.133184 0
0.914994 0.161092 0
0.874787 0.172786 0
0.820938 0.167723 0
0.756184 0.148673 0
0.687334 0.121627 0
0.625099 0.091080 0
0.580358 0.055681 0
0.560286 0.009129 0
0.564562 -0.052372 0
0.590379 -0.115308 0
0.635414 -0.156373 0
0.697143 -0.161328 0
0.772231 -0.127034 0
0.854454 -0.061313 0
0.929857 0.013158 0
0.984873 0.074912 0
1.020463 0.120930 0
1.041120 0.155161 0
1.049086 0.179776 0
1.045932 0.195800 0
1.032934 0.203731 0
1.010905 0.204064 0
0.979793 0.197920 0
0.938444 0.187607 0
0.885548 0.176012 0
0.822499 0.163899 0
0.756483 0.147212 0
0.699658 0.118673 0
0.663080 0.073457 0
0.650436 0.013461 0
0.656031 -0.053434 0
0.670872 -0.117775 0
0.689950 -0.172210 0
0.712152 -0.211635 0
0.738415 -0.232041 0
0.770104 -0.230488 0
0.807769 -0.206076 0
0.850560 -0.160957 0
0.896335 -0.100483 0
0.941933 -0.032856 0
0.981549 0.031046 0
1.011326 0.083669 0
1.030940 0.123461 0
1.040748 0.150715 0
1.041401 0.166557 0
1.033533 0.172761 0
1.017551 0.171676 0
0.993654 0.165993 0
0.962349 0.157990 0
0.925401 0.148304 0
0.886547 0.135129 0
0.850975 0.115029 0
0.823486 0.085295 0
0.806622 0.046107 0
0.800163 0.000798 0
0.801850 -0.045656 0
0.808811 -0.088573 0
0.819004 -0.124548 0
0.831401 -0.151274 0
0.845728 -0.167097 0
0.862114 -0.170806 0
0.880709 -0.161794 0
0.901389 -0.140396 0
0.923638 -0.108156 0
0.946600 -0.067837 0
0.969153 -0.023259 0
0.989389 0.020656 0
1.005397 0.059594 0
1.016138 0.091240 0
1.020992 0.114664 0
1.019634 0.130032 0
1.011999 0.138364 0
0.998330 0.141152 0
0.979328 0.139843 0
0.956313 0.135303 0
0.931246 0.127536 0
0.906468 0.115924 0
0.884185 0.099907 0
0.865964 0.079722 0
0.852491 0.056718 0
0.843669 0.033123 0
0.838909 0.011411 0
0.837523 -0.001664 0
1.000000 0.000023 0
0.997155 -0.020889 0
0.988256 -0.044488 0
0.971949 -0.074114 0
0.945590 -0.115209 0
0.904428 -0.178609 0
0.839811 -0.288029 0
0.736678 -0.560375 0
0.552015 -0.537276 0
-0.000384 -0.167114 0
0.396133 -0.033869 0
0.321077 -0.048659 0
0.318750 -0.062235 0
0.354654 -0.074210 0
0.404215 -0.049378 0
0.454985 0.014259 0
0.485487 0.084077 0
0.496100 0.143673 0
0.484296 0.191773 0
0.448102 0.226191 0
0.389360 0.243954 0
0.317019 0.240514 0
0.248812 0.211028 0
0.203857 0.154774 0
0.193688 0.076746 0
0.218817 -0.013555 0
0.265823 -0.102160 0
0.319499 -0.175762 0
0.375976 -0.223728 0
0.438044 -0.237026 0
0.509432 -0.211986 0
0.591325 -0.152537 0
0.680123 -0.070624 0
0.761566 0.011768 0
0.823388 0.077996 0
0.866312 0.128503 0
0.892859 0.167436 0
0.904206 0.196449 0
0.901015 0.216610 0
0.883387 0.229359 0
0.851071 0.236791 0
0.804692 0.240681 0
0.748218 0.240052 0
0.690745 0.229441 0
0.644312 0.201203 0
0.617919 0.151294 0
0.613029 0.083033 0
0.624357 0.005760 0
0.643068 -0.069722 0
0.662220 -0.136388 0
0.679047 -0.191222 0
0.693831 -0.231954 0
0.708859 -0.255826 0
0.727307 -0.259710 0
0.751828 -0.241406 0
0.783295 -0.201398 0
0.820467 -0.143745 0
0.860639 -0.075456 0
0.899992 -0.005892 0
0.932965 0.055788 0
0.957362 0.105210 0
0.972517 0.142061 0
0.978258 0.167258 0
0.974569 0.182623 0
0.961550 0.190528 0
0.939768 0.193208 0
0.910978 0.191636 0
0.878708 0.184565 0
0.847896 0.168855 0
0.823314 0.141480 0
0.807741 0.101928 0
0.801283 0.053071 0
0.802144 0.000090 0
0.807779 -0.051401 0
0.815799 -0.097140 0
0.824638 -0.134659 0
0.833607 -0.162527 0
0.842795 -0.179700 0
0.852843 -0.185224 0
0.864573 -0.178363 0
0.878552 -0.159050 0
0.894794 -0.128361 0
0.912724 -0.088686 0
0.931340 -0.043490 0
0.949285 0.002838 0
0.964552 0.045866 0
0.975762 0.082620 0
0.981992 0.111792 0
0.982672 0.133237 0
0.977591 0.147626 0
0.966998 0.155971 0
0.951749 0.159097 0
0.933350 0.157222 0
0.913793 0.149938 0
0.895135 0.136674 0
0.879013 0.117406 0
0.866332 0.093165 0
0.857270 0.066043 0
0.851507 0.038754 0
0.848502 0.013895 0
0.847892 -0.000958 0
1.000000 0.000024 0
0.996187 -0.013652 0
0.984154 -0.028742 0
0.961693 -0.046767 0
0.924181 -0.069840 0
0.862350 -0.101113 0
0.756402 -0.144180 0
0.562977 -0.217012 0
0.073444 0.000202 0
-0.530774 0.133261 0
0.000000 0.000065 0
-0.033613 -0.047614 0
-0.057570 -0.122411 0
-0.026505 -0.148400 0
-0.007624 -0.119212 0
0.026480 -0.043183 0
0.069755 0.050030 0
0.099939 0.134369 0
0.108561 0.209084 0
0.094454 0.267716 0
0.065053 0.298799 0
0.038429 0.289214 0
0.034167 0.234783 0
0.056769 0.146197 0
0.101948 0.040714 0
0.154461 -0.063011 0
0.202640 -0.153060 0
0.243710 -0.225468 0
0.279688 -0.274924 0
0.316632 -0.294790 0
0.361819 -0.280322 0
0.420147 -0.232010 0
0.491734 -0.157089 0
0.571098 -0.068359 0
0.643679 0.016178 0
0.698736 0.085684 0
0.736064 0.141875 0
0.756163 0.187638 0
0.759182 0.224544 0
0.745536 0.254001 0
0.717068 0.276610 0
0.678734 0.290453 0
0.639478 0.289952 0
0.610176 0.267799 0
0.598733 0.220031 0
0.606288 0.149949 0
0.627913 0.067013 0
0.655766 -0.016585 0
0.681664 -0.091304 0
0.701816 -0.153761 0
0.714868 -0.203828 0
0.721369 -0.241454 0
0.723792 -0.265523 0
0.726256 -0.273463 0
0.733412 -0.262070 0
0.748606 -0.229603 0
0.772445 -0.177835 0
0.802834 -0.112387 0
0.836180 -0.041286 0
0.867547 0.026292 0
0.892676 0.083902 0
0.909853 0.129813 0
0.918213 0.164498 0
0.917382 0.189462 0
0.907611 0.206471 0