# vtk DataFile Version 2.0
generated by CFD-lab course output (written by Tobias Neckel) 
ASCII

DATASET STRUCTURED_GRID
DIMENSIONS  101 21 1 
POINTS 2121 float

0.000000 0.000000 0
0.100000 0.000000 0
0.200000 0.000000 0
0.300000 0.000000 0
0.400000 0.000000 0
0.500000 0.000000 0
0.600000 0.000000 0
0.700000 0.000000 0
0.800000 0.000000 0
0.900000 0.000000 0
1.000000 0.000000 0
1.100000 0.000000 0
1.200000 0.000000 0
1.300000 0.000000 0
1.400000 0.000000 0
1.500000 0.000000 0
1.600000 0.000000 0
1.700000 0.000000 0
1.800000 0.000000 0
1.900000 0.000000 0
2.000000 0.000000 0
2.100000 0.000000 0
2.200000 0.000000 0
2.300000 0.000000 0
2.400000 0.000000 0
2.500000 0.000000 0
2.600000 0.000000 0
2.700000 0.000000 0
2.800000 0.000000 0
2.900000 0.000000 0
3.000000 0.000000 0
3.100000 0.000000 0
3.200000 0.000000 0
3.300000 0.000000 0
3.400000 0.000000 0
3.500000 0.000000 0
3.600000 0.000000 0
3.700000 0.000000 0
3.800000 0.000000 0
3.900000 0.000000 0
4.000000 0.000000 0
4.100000 0.000000 0
4.200000 0.000000 0
4.300000 0.000000 0
4.400000 0.000000 0
4.500000 0.000000 0
4.600000 0.000000 0
4.700000 0.000000 0
4.800000 0.000000 0
4.900000 0.000000 0
5.000000 0.000000 0
5.100000 0.000000 0
5.200000 0.000000 0
5.300000 0.000000 0
5.400000 0.000000 0
5.500000 0.000000 0
5.600000 0.000000 0
5.700000 0.000000 0
5.800000 0.000000 0
5.900000 0.000000 0
6.000000 0.000000 0
6.100000 0.000000 0
6.200000 0.000000 0
6.300000 0.000000 0
6.400000 0.000000 0
6.500000 0.000000 0
6.600000 0.000000 0
6.700000 0.000000 0
6.800000 0.000000 0
6.900000 0.000000 0
7.000000 0.000000 0
7.100000 0.000000 0
7.200000 0.000000 0
7.300000 0.000000 0
7.400000 0.000000 0
7.500000 0.000000 0
7.600000 0.000000 0
7.700000 0.000000 0
7.800000 0.000000 0
7.900000 0.000000 0
8.000000 0.000000 0
8.100000 0.000000 0
8.200000 0.000000 0
8.300000 0.000000 0
8.400000 0.000000 0
8.500000 0.000000 0
8.600000 0.000000 0
8.700000 0.000000 0
8.800000 0.000000 0
8.900000 0.000000 0
9.000000 0.000000 0
9.100000 0.000000 0
9.200000 0.000000 0
9.300000 0.000000 0
9.400000 0.000000 0
9.500000 0.000000 0
9.600000 0.000000 0
9.700000 0.000000 0
9.800000 0.000000 0
9.900000 0.000000 0
10.000000 0.000000 0
0.000000 0.100000 0
0.100000 0.100000 0
0.200000 0.100000 0
0.300000 0.100000 0
0.400000 0.100000 0
0.500000 0.100000 0
0.600000 0.100000 0
0.700000 0.100000 0
0.800000 0.100000 0
0.900000 0.100000 0
1.000000 0.100000 0
1.100000 0.100000 0
1.200000 0.100000 0
1.300000 0.100000 0
1.400000 0.100000 0
1.500000 0.100000 0
1.600000 0.100000 0
1.700000 0.100000 0
1.800000 0.100000 0
1.900000 0.100000 0
2.000000 0.100000 0
2.100000 0.100000 0
2.200000 0.100000 0
2.300000 0.100000 0
2.400000 0.100000 0
2.500000 0.100000 0
2.600000 0.100000 0
2.700000 0.100000 0
2.800000 0.100000 0
2.900000 0.100000 0
3.000000 0.100000 0
3.100000 0.100000 0
3.200000 0.100000 0
3.300000 0.100000 0
3.400000 0.100000 0
3.500000 0.100000 0
3.600000 0.100000 0
3.700000 0.100000 0
3.800000 0.100000 0
3.900000 0.100000 0
4.000000 0.100000 0
4.100000 0.100000 0
4.200000 0.100000 0
4.300000 0.100000 0
4.400000 0.100000 0
4.500000 0.100000 0
4.600000 0.100000 0
4.700000 0.100000 0
4.800000 0.100000 0
4.900000 0.100000 0
5.000000 0.100000 0
5.100000 0.100000 0
5.200000 0.100000 0
5.300000 0.100000 0
5.400000 0.100000 0
5.500000 0.100000 0
5.600000 0.100000 0
5.700000 0.100000 0
5.800000 0.100000 0
5.900000 0.100000 0
6.000000 0.100000 0
6.100000 0.100000 0
6.200000 0.100000 0
6.300000 0.100000 0
6.400000 0.100000 0
6.500000 0.100000 0
6.600000 0.100000 0
6.700000 0.100000 0
6.800000 0.100000 0
6.900000 0.100000 0
7.000000 0.100000 0
7.100000 0.100000 0
7.200000 0.100000 0
7.300000 0.100000 0
7.400000 0.100000 0
7.500000 0.100000 0
7.600000 0.100000 0
7.700000 0.100000 0
7.800000 0.100000 0
7.900000 0.100000 0
8.000000 0.100000 0
8.100000 0.100000 0
8.200000 0.100000 0
8.300000 0.100000 0
8.400000 0.100000 0
8.500000 0.100000 0
8.600000 0.100000 0
8.700000 0.100000 0
8.800000 0.100000 0
8.900000 0.100000 0
9.000000 0.100000 0
9.100000 0.100000 0
9.200000 0.100000 0
9.300000 0.100000 0
9.400000 0.100000 0
9.500000 0.100000 0
9.600000 0.100000 0
9.700000 0.100000 0
9.800000 0.100000 0
9.900000 0.100000 0
10.000000 0.100000 0
0.000000 0.200000 0
0.100000 0.200000 0
0.200000 0.200000 0
0.300000 0.200000 0
0.400000 0.200000 0
0.500000 0.200000 0
0.600000 0.200000 0
0.700000 0.200000 0
0.800000 0.200000 0
0.900000 0.200000 0
1.000000 0.200000 0
1.100000 0.200000 0
1.200000 0.200000 0
1.300000 0.200000 0
1.400000 0.200000 0
1.500000 0.200000 0
1.600000 0.200000 0
1.700000 0.200000 0
1.800000 0.200000 0
1.900000 0.200000 0
2.000000 0.200000 0
2.100000 0.200000 0
2.200000 0.200000 0
2.300000 0.200000 0
2.400000 0.200000 0
2.500000 0.200000 0
2.600000 0.200000 0
2.700000 0.200000 0
2.800000 0.200000 0
2.900000 0.200000 0
3.000000 0.200000 0
3.100000 0.200000 0
3.200000 0.200000 0
3.300000 0.200000 0
3.400000 0.200000 0
3.500000 0.200000 0
3.600000 0.200000 0
3.700000 0.200000 0
3.800000 0.200000 0
3.900000 0.200000 0
4.000000 0.200000 0
4.100000 0.200000 0
4.200000 0.200000 0
4.300000 0.200000 0
4.400000 0.200000 0
4.500000 0.200000 0
4.600000 0.200000 0
4.700000 0.200000 0
4.800000 0.200000 0
4.900000 0.200000 0
5.000000 0.200000 0
5.100000 0.200000 0
5.200000 0.200000 0
5.300000 0.200000 0
5.400000 0.200000 0
5.500000 0.200000 0
5.600000 0.200000 0
5.700000 0.200000 0
5.800000 0.200000 0
5.900000 0.200000 0
6.000000 0.200000 0
6.100000 0.200000 0
6.200000 0.200000 0
6.300000 0.200000 0
6.400000 0.200000 0
6.500000 0.200000 0
6.600000 0.200000 0
6.700000 0.200000 0
6.800000 0.200000 0
6.900000 0.200000 0
7.000000 0.200000 0
7.100000 0.200000 0
7.200000 0.200000 0
7.300000 0.200000 0
7.400000 0.200000 0
7.500000 0.200000 0
7.600000 0.200000 0
7.700000 0.200000 0
7.800000 0.200000 0
7.900000 0.200000 0
8.000000 0.200000 0
8.100000 0.200000 0
8.200000 0.200000 0
8.300000 0.200000 0
8.400000 0.200000 0
8.500000 0.200000 0
8.600000 0.200000 0
8.700000 0.200000 0
8.800000 0.200000 0
8.900000 0.200000 0
9.000000 0.200000 0
9.100000 0.200000 0
9.200000 0.200000 0
9.300000 0.200000 0
9.400000 0.200000 0
9.500000 0.200000 0
9.600000 0.200000 0
9.700000 0.200000 0
9.800000 0.200000 0
9.900000 0.200000 0
10.000000 0.200000 0
0.000000 0.300000 0
0.100000 0.300000 0
0.200000 0.300000 0
0.300000 0.300000 0
0.400000 0.300000 0
0.500000 0.300000 0
0.600000 0.300000 0
0.700000 0.300000 0
0.800000 0.300000 0
0.900000 0.300000 0
1.000000 0.300000 0
1.100000 0.300000 0
1.200000 0.300000 0
1.300000 0.300000 0
1.400000 0.300000 0
1.500000 0.300000 0
1.600000 0.300000 0
1.700000 0.300000 0
1.800000 0.300000 0
1.900000 0.300000 0
2.000000 0.300000 0
2.100000 0.300000 0
2.200000 0.300000 0
2.300000 0.300000 0
2.400000 0.300000 0
2.500000 0.300000 0
2.600000 0.300000 0
2.700000 0.300000 0
2.800000 0.300000 0
2.900000 0.300000 0
3.000000 0.300000 0
3.100000 0.300000 0
3.200000 0.300000 0
3.300000 0.300000 0
3.400000 0.300000 0
3.500000 0.300000 0
3.600000 0.300000 0
3.700000 0.300000 0
3.800000 0.300000 0
3.900000 0.300000 0
4.000000 0.300000 0
4.100000 0.300000 0
4.200000 0.300000 0
4.300000 0.300000 0
4.400000 0.300000 0
4.500000 0.300000 0
4.600000 0.300000 0
4.700000 0.300000 0
4.800000 0.300000 0
4.900000 0.300000 0
5.000000 0.300000 0
5.100000 0.300000 0
5.200000 0.300000 0
5.300000 0.300000 0
5.400000 0.300000 0
5.500000 0.300000 0
5.600000 0.300000 0
5.700000 0.300000 0
5.800000 0.300000 0
5.900000 0.300000 0
6.000000 0.300000 0
6.100000 0.300000 0
6.200000 0.300000 0
6.300000 0.300000 0
6.400000 0.300000 0
6.500000 0.300000 0
6.600000 0.300000 0
6.700000 0.300000 0
6.800000 0.300000 0
6.900000 0.300000 0
7.000000 0.300000 0
7.100000 0.300000 0
7.200000 0.300000 0
7.300000 0.300000 0
7.400000 0.300000 0
7.500000 0.300000 0
7.600000 0.300000 0
7.700000 0.300000 0
7.800000 0.300000 0
7.900000 0.300000 0
8.000000 0.300000 0
8.100000 0.300000 0
8.200000 0.300000 0
8.300000 0.300000 0
8.400000 0.300000 0
8.500000 0.300000 0
8.600000 0.300000 0
8.700000 0.300000 0
8.800000 0.300000 0
8.900000 0.300000 0
9.000000 0.300000 0
9.100000 0.300000 0
9.200000 0.300000 0
9.300000 0.300000 0
9.400000 0.300000 0
9.500000 0.300000 0
9.600000 0.300000 0
9.700000 0.300000 0
9.800000 0.300000 0
9.900000 0.300000 0
10.000000 0.300000 0
0.000000 0.400000 0
0.100000 0.400000 0
0.200000 0.400000 0
0.300000 0.400000 0
0.400000 0.400000 0
0.500000 0.400000 0
0.600000 0.400000 0
0.700000 0.400000 0
0.800000 0.400000 0
0.900000 0.400000 0
1.000000 0.400000 0
1.100000 0.400000 0
1.200000 0.400000 0
1.300000 0.400000 0
1.400000 0.400000 0
1.500000 0.400000 0
1.600000 0.400000 0
1.700000 0.400000 0
1.800000 0.400000 0
1.900000 0.400000 0
2.000000 0.400000 0
2.100000 0.400000 0
2.200000 0.400000 0
2.300000 0.400000 0
2.400000 0.400000 0
2.500000 0.400000 0
2.600000 0.400000 0
2.700000 0.400000 0
2.800000 0.400000 0
2.900000 0.400000 0
3.000000 0.400000 0
3.100000 0.400000 0
3.200000 0.400000 0
3.300000 0.400000 0
3.400000 0.400000 0
3.500000 0.400000 0
3.600000 0.400000 0
3.700000 0.400000 0
3.800000 0.400000 0
3.900000 0.400000 0
4.000000 0.400000 0
4.100000 0.400000 0
4.200000 0.400000 0
4.300000 0.400000 0
4.400000 0.400000 0
4.500000 0.400000 0
4.600000 0.400000 0
4.700000 0.400000 0
4.800000 0.400000 0
4.900000 0.400000 0
5.000000 0.400000 0
5.100000 0.400000 0
5.200000 0.400000 0
5.300000 0.400000 0
5.400000 0.400000 0
5.500000 0.400000 0
5.600000 0.400000 0
5.700000 0.400000 0
5.800000 0.400000 0
5.900000 0.400000 0
6.000000 0.400000 0
6.100000 0.400000 0
6.200000 0.400000 0
6.300000 0.400000 0
6.400000 0.400000 0
6.500000 0.400000 0
6.600000 0.400000 0
6.700000 0.400000 0
6.800000 0.400000 0
6.900000 0.400000 0
7.000000 0.400000 0
7.100000 0.400000 0
7.200000 0.400000 0
7.300000 0.400000 0
7.400000 0.400000 0
7.500000 0.400000 0
7.600000 0.400000 0
7.700000 0.400000 0
7.800000 0.400000 0
7.900000 0.400000 0
8.000000 0.400000 0
8.100000 0.400000 0
8.200000 0.400000 0
8.300000 0.400000 0
8.400000 0.400000 0
8.500000 0.400000 0
8.600000 0.400000 0
[...]
POINT_DATA 2121 

VECTORS velocity float
0.500000 0.000000 0
-0.000004 0.000000 0
-0.000014 0.000000 0
-0.000030 0.000000 0
-0.000051 0.000000 0
-0.000074 0.000000 0
-0.000097 0.000000 0
-0.000114 0.000000 0
-0.000119 0.000000 0
-0.000105 0.000000 0
-0.000062 0.000000 0
0.000015 0.000000 0
0.000133 0.000000 0
0.000292 0.000000 0
0.000486 0.000000 0
0.000696 0.000000 0
0.000897 0.000000 0
0.001059 0.000000 0
0.001154 0.000000 0
0.001155 0.000000 0
0.001041 0.000000 0
0.000801 0.000000 0
0.000432 0.000000 0
-0.000058 0.000000 0
-0.000652 0.000000 0
-0.001321 0.000000 0
-0.002025 0.000000 0
-0.002675 0.000000 0
-0.003149 0.000000 0
-0.003321 0.000000 0
-0.003101 0.000000 0
-0.002491 0.000000 0
-0.001592 0.000000 0
-0.000559 0.000000 0
0.000498 0.000000 0
0.001484 0.000000 0
0.002335 0.000000 0
0.003010 0.000000 0
0.003495 0.000000 0
0.003784 0.000000 0
0.003878 0.000000 0
0.003781 0.000000 0
0.003493 0.000000 0
0.003015 0.000000 0
0.002340 0.000000 0
0.001457 0.000000 0
0.000351 0.000000 0
-0.000942 0.000000 0
-0.002287 0.000000 0
-0.003593 0.000000 0
-0.004766 0.000000 0
-0.005692 0.000000 0
-0.006245 0.000000 0
-0.006294 0.000000 0
-0.005744 0.000000 0
-0.004583 0.000000 0
-0.002941 0.000000 0
-0.001097 0.000000 0
0.000689 0.000000 0
0.002329 0.000000 0
0.003731 0.000000 0
0.004824 0.000000 0
0.005563 0.000000 0
0.005934 0.000000 0
0.005942 0.000000 0
0.005606 0.000000 0
0.004951 0.000000 0
0.004008 0.000000 0
0.002821 0.000000 0
0.001462 0.000000 0
0.000053 0.000000 0
-0.001182 0.000000 0
-0.002193 0.000000 0
-0.003013 0.000000 0
-0.003688 0.000000 0
-0.004251 0.000000 0
-0.004710 0.000000 0
-0.005041 0.000000 0
-0.005179 0.000000 0
-0.005028 0.000000 0
-0.004488 0.000000 0
-0.003503 0.000000 0
-0.002124 0.000000 0
-0.000525 0.000000 0
0.001138 0.000000 0
0.002781 0.000000 0
0.004302 0.000000 0
0.005582 0.000000 0
0.006497 0.000000 0
0.006929 0.000000 0
0.006796 0.000000 0
0.006091 0.000000 0
0.004915 0.000000 0
0.003468 0.000000 0
0.002002 0.000000 0
0.000770 0.000000 0
-0.000040 0.000000 0
-0.000496 0.000000 0
-0.000719 0.000000 0
-0.000817 0.000000 0
-0.000943 0.000000 0
1.000000 0.000003 0
1.002597 -0.004721 0
1.010697 -0.010285 0
1.024740 -0.016384 0
1.045209 -0.022814 0
1.072425 -0.029200 0
1.106245 -0.034878 0
1.145642 -0.038921 0
1.188406 -0.040370 0
1.231003 -0.038822 0
1.270133 -0.034738 0
1.303653 -0.028984 0
1.330500 -0.022336 0
1.350255 -0.015311 0
1.362809 -0.008240 0
1.368259 -0.001407 0
1.366950 0.004912 0
1.359506 0.010459 0
1.346847 0.014966 0
1.330173 0.018197 0
1.310904 0.019984 0
1.290597 0.020241 0
1.270846 0.018977 0
1.253180 0.016289 0
1.238985 0.012347 0
1.229434 0.007385 0
1.225435 0.001730 0
1.227489 -0.004015 0
1.235410 -0.008945 0
1.248011 -0.012090 0
1.263014 -0.012690 0
1.277411 -0.010520 0
1.288208 -0.006035 0
1.293189 -0.000116 0
1.291291 0.006379 0
1.282426 0.012752 0
1.267172 0.018471 0
1.246519 0.023193 0
1.221668 0.026738 0
1.193904 0.029027 0
1.164525 0.030037 0
1.134817 0.029769 0
1.106055 0.028224 0
1.079501 0.025394 0
1.056401 0.021241 0
1.037965 0.015682 0
1.025315 0.008657 0
1.019412 0.000423 0
1.021004 -0.008323 0
1.030524 -0.016844 0
1.047937 -0.024509 0
1.072567 -0.030639 0
1.103023 -0.034503 0
1.137209 -0.035406 0
1.172342 -0.032831 0
1.205056 -0.026704 0
1.231758 -0.017681 0
1.249297 -0.007171 0
1.255796 0.003413 0
1.251221 0.013261 0
1.236685 0.021863 0
1.213810 0.028787 0
1.184568 0.033741 0
1.151113 0.036577 0
1.115649 0.037262 0
1.080331 0.035834 0
1.047184 0.032382 0
1.018015 0.027039 0
0.994294 0.020043 0
0.976998 0.011827 0
0.966502 0.003185 0
0.962645 -0.004754 0
0.964902 -0.011318 0
0.972497 -0.016564 0
0.984684 -0.020740 0
1.000838 -0.024064 0
1.020464 -0.026637 0
1.043116 -0.028381 0
1.068229 -0.029005 0
1.094890 -0.028038 0
1.121656 -0.024970 0
1.146515 -0.019512 0
1.167021 -0.011901 0
1.180651 -0.002968 0
1.185415 0.006397 0
1.180660 0.015606 0
1.166836 0.024108 0
1.145025 0.031255 0
1.116924 0.036348 0
1.084795 0.038712 0
1.051319 0.037836 0
1.019324 0.033605 0
0.991361 0.026493 0
0.969251 0.017577 0
0.953775 0.008312 0
0.944669 0.000296 0
0.940956 -0.005263 0
0.941228 -0.008111 0
0.943725 -0.008500 0
0.946574 -0.004866 0
0.945992 -0.001752 0
1.000000 0.000006 0
1.002914 -0.010706 0
1.011462 -0.022147 0
1.026043 -0.034516 0
1.047358 -0.047689 0
1.076160 -0.061041 0
1.112859 -0.073221 0
1.156827 -0.082165 0
1.205835 -0.085366 0
1.254209 -0.081733 0
1.297370 -0.072657 0
1.333286 -0.060375 0
1.361525 -0.046610 0
1.382196 -0.032318 0
1.395393 -0.018013 0
1.401176 -0.004149 0
1.399854 0.008745 0
1.392020 0.020095 0
1.378613 0.029327 0
1.360910 0.035939 0
1.340446 0.039571 0
1.318907 0.040054 0
1.298006 0.037414 0
1.279366 0.031859 0
1.264436 0.023744 0
1.254450 0.013548 0
1.250465 0.001944 0
1.253325 -0.009977 0
1.263261 -0.020524 0
1.279275 -0.027605 0
1.298819 -0.029402 0
1.318149 -0.025196 0
1.333320 -0.015781 0
1.341439 -0.003087 0
1.341465 0.010759 0
1.333682 0.024115 0
1.319030 0.035902 0
1.298772 0.045498 0
1.274276 0.052608 0
1.246888 0.057137 0
1.217894 0.059081 0
1.188525 0.058464 0
1.159966 0.055311 0
1.133363 0.049649 0
1.109795 0.041531 0
1.090215 0.031081 0
1.075382 0.018549 0
1.065857 0.004308 0
1.062254 -0.011114 0
1.065276 -0.026936 0
1.075313 -0.042045 0
1.092289 -0.055088 0
1.115697 -0.064645 0
1.144656 -0.069321 0
1.177703 -0.067849 0
1.212487 -0.059420 0
1.245611 -0.044244 0
1.272894 -0.024041 0
1.290281 -0.001928 0
1.295661 0.019107 0
1.289831 0.037406 0
1.274527 0.052112 0
1.251824 0.062693 0
1.223940 0.068914 0
1.193088 0.070776 0
1.161349 0.068460 0
1.130565 0.062311 0
1.102220 0.052885 0
1.077345 0.041012 0
1.056465 0.027787 0
1.039688 0.014347 0
1.027000 0.001596 0
1.018569 -0.009854 0
1.014351 -0.019784 0
1.014165 -0.028343 0
1.017904 -0.035780 0
1.025659 -0.042277 0
1.037676 -0.047763 0
1.054143 -0.051769 0
1.074870 -0.053421 0
1.099064 -0.051619 0
1.125245 -0.045357 0
1.151251 -0.034127 0
1.174302 -0.018384 0
1.191342 0.000002 0
1.200062 0.018590 0
1.200094 0.035646 0
1.192225 0.049924 0
1.177783 0.060242 0
1.158476 0.065616 0
1.136162 0.065482 0
1.112608 0.059970 0
1.089290 0.050084 0
1.067304 0.037596 0
1.047375 0.024592 0
1.029962 0.012829 0
1.015474 0.003451 0
1.004096 -0.002759 0
0.995484 -0.005336 0
0.988940 -0.002257 0
0.984096 0.000861 0
1.000000 0.000010 0
1.002508 -0.016188 0
1.010216 -0.033415 0
1.023806 -0.052280 0
1.044475 -0.072933 0
1.073822 -0.094703 0
1.113470 -0.115546 0
1.163943 -0.131900 0
1.224106 -0.137755 0
1.281460 -0.130360 0
1.329010 -0.113818 0
1.366038 -0.093142 0
1.393968 -0.071250 0
1.414078 -0.049182 0
1.426736 -0.027223 0
1.431673 -0.005871 0
1.428945 0.014066 0
1.418982 0.031698 0
1.402737 0.046075 0
1.381641 0.056364 0
1.357451 0.061986 0
1.332093 0.062681 0
1.307511 0.058518 0
1.285509 0.049859 0
1.267626 0.037263 0
1.255127 0.021355 0
1.249179 0.002854 0
1.251142 -0.016812 0
1.262015 -0.034896 0
1.281235 -0.047649 0
1.306124 -0.051566 0
1.332137 -0.045022 0
1.353811 -0.029327 0
1.366572 -0.008263 0
1.368759 0.014134 0
1.361395 0.035185 0
1.346178 0.053378 0
1.324932 0.067944 0
1.299344 0.078620 0
1.270878 0.085407 0
1.240797 0.088398 0
1.210228 0.087694 0
1.180210 0.083384 0
1.151728 0.075564 0
1.125701 0.064387 0
1.102945 0.050094 0
1.084109 0.033014 0
1.069624 0.013549 0
1.059685 -0.007743 0
1.054448 -0.029904 0
1.054221 -0.051523 0
1.059422 -0.071024 0
1.070766 -0.086871 0
1.089149 -0.097413 0
1.114935 -0.100665 0
1.147190 -0.094613 0
1.183342 -0.078089 0
1.219256 -0.051843 0
1.249743 -0.019356 0
1.269727 0.013708 0
1.277163 0.042995 0
1.273498 0.066792 0
1.260750 0.084325 0
1.241096 0.095311 0
1.216693 0.099850 0
1.189526 0.098355 0
1.161303 0.091508 0
1.133389 0.080256 0
1.106800 0.065796 0
1.082262 0.049483 0
1.060263 0.032648 0
1.041013 0.016363 0
1.024425 0.001331 0
1.010359 -0.012160 0
0.998850 -0.024292 0
0.990518 -0.035556 0
0.986470 -0.046407 0
0.987956 -0.056864 0
0.995874 -0.066196 0
1.010338 -0.072956 0
1.030614 -0.075342 0
1.055298 -0.071696 0
1.082555 -0.060955 0
1.110242 -0.043056 0
1.135885 -0.019361 0
1.156538 0.006856 0
1.169897 0.031947 0
1.175745 0.053567 0
1.174650 0.070099 0
1.167535 0.080335 0
1.155468 0.083706 0
1.139507 0.080477 0
1.120658 0.071797 0
1.099939 0.059492 0
1.078434 0.045653 0
1.057222 0.032197 0
1.037141 0.020602 0
1.018748 0.011878 0
1.002557 0.006655 0
0.989110 0.006521 0
0.980659 0.007549 0
1.000000 0.000014 0
1.001970 -0.020925 0
1.008186 -0.043446 0
1.019613 -0.068776 0
1.038052 -0.097705 0
1.066328 -0.130037 0
1.108280 -0.163344 0
1.167319 -0.192803 0
1.248031 -0.202886 0
1.316595 -0.186640 0
1.364779 -0.157238 0
1.397813 -0.125337 0
1.421335 -0.094654 0
1.438632 -0.065089 0
1.450281 -0.035611 0
1.454832 -0.006360 0
1.451026 0.021434 0
1.438821 0.046302 0
1.419174 0.066668 0
1.393752 0.081225 0
1.364629 0.089118 0
1.334083 0.089993 0
1.304408 0.083998 0
1.277688 0.071743 0
1.255553 0.054125 0
1.239095 0.031994 0
1.229031 0.005929 0
1.226394 -0.022814 0
1.233291 -0.050619 0
1.250502 -0.071715 0
1.276644 -0.080306 0
1.308262 -0.072885 0
1.339524 -0.050217 0
1.362954 -0.018038 0
1.372721 0.015933 0
1.369262 0.046693 0
1.355652 0.072362 0
1.334724 0.092328 0
1.308766 0.106659 0
1.279525 0.115682 0
1.248347 0.119729 0
1.216334 0.119049 0
1.184468 0.113808 0
1.153676 0.104156 0
1.124847 0.090313 0
1.098746 0.072672 0
1.075782 0.051869 0
1.055691 0.028731 0
1.037468 0.004061 0
1.020010 -0.021473 0
1.003597 -0.047021 0
0.990765 -0.071634 0
0.985046 -0.094373 0
0.989702 -0.113491 0
1.006200 -0.125892 0
1.033824 -0.127828 0
1.070133 -0.116311 0
1.111430 -0.090444 0
1.152957 -0.052401 0
1.188961 -0.008314 0
1.213659 0.033633 0
1.225795 0.068522 0
1.226960 0.095092 0
1.219095 0.112968 0
1.204223 0.122344 0
1.184265 0.123847 0
1.160931 0.118446 0
1.135670 0.107386 0
1.109654 0.092137 0
1.083757 0.074321 0
1.058485 0.055595 0
1.033923 0.037433 0
1.009861 0.020798 0
0.986337 0.005792 0
0.964189 -0.008501 0
0.945226 -0.023399 0
0.931969 -0.039713 0
0.926554 -0.057165 0
0.929794 -0.074150 0
0.941174 -0.088159 0
0.959367 -0.096576 0
0.982729 -0.097296 0
1.009567 -0.089069 0
1.038217 -0.071713 0
1.066972 -0.046292 0
1.093840 -0.015421 0
1.116054 0.016440 0
1.131757 0.045172 0
1.140725 0.068452 0
1.143168 0.084797 0
1.139547 0.093509 0
1.130471 0.094778 0
1.116683 0.089650 0
1.099087 0.079819 0
1.078719 0.067308 0
1.056642 0.054120 0
1.033852 0.041923 0
1.011344 0.031823 0
0.990322 0.024298 0
0.972406 0.019637 0
0.961481 0.017359 0
1.000000 0.000018 0
1.001134 -0.024376 0
1.004853 -0.051058 0
1.012219 -0.082146 0
1.025439 -0.119649 0
1.048592 -0.164932 0
1.088721 -0.216538 0
1.155494 -0.271653 0
1.271749 -0.287034 0
1.344310 -0.247111 0
1.377569 -0.195039 0
1.393608 -0.149702 0
1.403842 -0.112072 0
1.413580 -0.078131 0
1.423572 -0.043426 0
1.430014 -0.006618 0
1.427526 0.030077 0
1.415102 0.063549 0
1.393759 0.091143 0
1.365350 0.110908 0
1.332160 0.121654 0
1.296745 0.122901 0
1.261775 0.114913 0
1.229674 0.098713 0
1.202068 0.075855 0
1.179445 0.047877 0
1.161404 0.015554 0
1.147119 -0.021073 0
1.138407 -0.059005 0
1.139998 -0.091003 0
1.154916 -0.109327 0
1.183825 -0.107904 0
1.223142 -0.084022 0
1.264346 -0.041463 0
1.295743 0.007822 0
1.309388 0.052252 0
1.308541 0.087914 0
1.297293 0.114827 0
1.278652 0.133816 0
1.254756 0.145824 0
1.227181 0.151586 0
1.197188 0.151571 0
1.165876 0.146041 0
1.134275 0.135184 0
1.103345 0.119316 0
1.073758 0.099157 0
1.045346 0.076069 0
1.016565 0.051862 0
0.985092 0.027936 0
0.950099 0.003967 0
0.914406 -0.022279 0
0.884530 -0.052474 0
0.867621 -0.085810 0
0.866523 -0.118569 0
0.880281 -0.144788 0
0.906417 -0.158548 0
0.942144 -0.155697 0
0.984543 -0.134669 0
1.030364 -0.096890 0
1.075662 -0.046996 0
1.114962 0.006160 0
1.142884 0.053489 0
1.159102 0.091022 0
1.164843 0.118045 0
1.161679 0.134678 0
1.151266 0.141645 0
1.135188 0.140101 0
1.114841 0.131532 0
1.091328 0.117708 0
1.065330 0.100649 0
1.037057 0.082481 0
1.006504 0.064987 0
0.974139 0.048916 0
0.941665 0.033513 0
0.912092 0.016819 0
0.888748 -0.003336 0
0.874104 -0.027734 0
0.869147 -0.054688 0
0.873217 -0.080815 0
0.884782 -0.102527 0
0.902202 -0.116895 0
0.924037 -0.121895 0
0.949052 -0.116442 0
0.976116 -0.100461 0
1.004098 -0.074983 0
1.031753 -0.042225 0
1.057395 -0.005970 0
1.078451 0.028895 0
1.093654 0.058686 0
1.102603 0.081509 0
1.105243 0.096400 0
1.101784 0.103339 0
1.092654 0.103177 0
1.078473 0.097452 0
1.060016 0.088095 0
1.038198 0.077059 0
1.014151 0.065895 0
0.989378 0.055404 0
0.965887 0.045588 0
0.946121 0.035357 0
0.934208 0.028956 0
1.000000 0.000022 0
0.999948 -0.025780 0
0.999990 -0.054531 0
1.000877 -0.089362 0
1.004458 -0.134079 0
1.014992 -0.193320 0
1.042103 -0.270248 0
1.105381 -0.375833 0
1.269271 -0.391705 0
1.314942 -0.292463 0
1.299963 -0.206538 0
1.280033 -0.151613 0
1.265114 -0.114629 0
1.259863 -0.084821 0
1.266141 -0.052047 0
1.279418 -0.010315 0
1.285857 0.036345 0
1.280316 0.080068 0
1.264178 0.116420 0
1.239223 0.142823 0
1.207333 0.157722 0
1.170850 0.160377 0
1.132700 0.151068 0
1.095689 0.131450 0
1.060788 0.104353 0
1.026032 0.072657 0
0.988912 0.038254 0
0.950211 0.000182 0
0.914507 -0.043500 0
0.893129 -0.088225 0
0.895579 -0.124134 0
0.922494 -0.141114 0
0.969500 -0.130741 0
1.029223 -0.090641 0
1.090873 -0.029112 0
1.140106 0.033893 0
1.169102 0.084454 0
1.182507 0.122214 0
1.184000 0.149194 0
1.176086 0.167151 0
1.160648 0.177294 0
1.139251 0.180352 0
1.113239 0.176720 0
1.083650 0.166687 0
1.050893 0.150829 0
1.014267 0.130670 0
0.972067 0.109061 0
0.923326 0.088984 0
0.870568 0.070525 0
0.820659 0.049212 0
0.781764 0.018548 0
0.759035 -0.024849 0
0.753006 -0.076368 0
0.760672 -0.126153 0
0.778679 -0.165787 0
0.804858 -0.189693 0
0.837996 -0.194439 0
0.877010 -0.178666 0
0.920343 -0.143522 0
0.965743 -0.092915 0
1.010096 -0.033591 0
1.048005 0.024380 0
1.075576 0.073131 0
1.092789 0.110389 0
1.100372 0.135918 0
1.099390 0.150335 0
1.090984 0.154869 0
1.076160 0.151244 0
1.055610 0.141646 0
1.029635 0.128591 0
0.998432 0.114421 0
0.962843 0.100350 0
0.925206 0.085637 0
0.889472 0.067839 0
0.860119 0.044417 0
0.840411 0.014589 0
0.831096 -0.020112 0
0.830818 -0.056277 0
0.837487 -0.089785 0
0.849296 -0.117143 0
0.865020 -0.135830 0
0.883900 -0.144146 0
0.905385 -0.141148 0
0.928915 -0.126759 0
0.953796 -0.101931 0
0.979163 -0.068720 0
1.003939 -0.030260 0
1.026357 0.008910 0
1.044311 0.044297 0
1.056864 0.073204 0
1.063511 0.094323 0
1.064071 0.107362 0
1.058617 0.112956 0
1.047449 0.112451 0
1.031112 0.107576 0
1.010498 0.099978 0
0.986995 0.090736 0
0.962580 0.080080 0
0.939717 0.067548 0
0.920999 0.051310 0
0.909668 0.040643 0
1.000000 0.000025 0
0.998515 -0.024368 0
0.993997 -0.051988 0
0.986318 -0.086614 0
0.975618 -0.133765 0
0.963384 -0.202579 0
0.955889 -0.306927 0
0.975026 -0.498823 0
1.132523 -0.496598 0
1.114584 -0.277806 0
1.005579 -0.160133 0
0.942346 -0.114856 0
0.898274 -0.091904 0
0.875006 -0.079161 0
0.877578 -0.062982 0
0.904227 -0.026334 0
0.938457 0.029178 0
0.958171 0.085227 0
0.964803 0.132235 0
0.958465 0.167753 0
0.938629 0.190026 0
0.905263 0.197533 0
0.858891 0.190073 0
0.800806 0.170623 0
0.734519 0.145512 0
0.667100 0.119753 0
0.608201 0.091374 0
0.567624 0.053331 0
0.550979 -0.001924 0
0.556666 -0.072077 0
0.581553 -0.138694 0
0.623007 -0.181827 0
0.679000 -0.190753 0
0.747501 -0.162838 0
0.824896 -0.103063 0
0.902945 -0.025980 0
0.966819 0.045510 0
1.010391 0.099926 0
1.037662 0.140234 0
1.051197 0.169174 0
1.052831 0.188420 0
1.044091 0.198979 0
1.026113 0.201641 0
0.999300 0.197529 0
0.963012 0.188697 0
0.916048 0.177982 0
0.858842 0.167009 0
0.796524 0.153360 0
0.739373 0.130603 0
0.698308 0.092770 0
0.678851 0.039344 0
0.678697 -0.023717 0
0.689812 -0.087448 0
0.705999 -0.144243 0
0.724882 -0.188975 0
0.746591 -0.217867 0
0.772309 -0.227851 0
0.803062 -0.217018 0
0.838878 -0.185625 0
0.878554 -0.136752 0
0.919926 -0.076105 0
0.959844 -0.011993 0
0.993071 0.046236 0
1.017435 0.093246 0
1.032643 0.128074 0
1.038949 0.151031 0
1.036807 0.163329 0
1.026626 0.166904 0
1.008668 0.164232 0
0.983278 0.157825 0
0.951529 0.149271 0
0.915977 0.138212 0
0.880766 0.122287 0
0.850561 0.098599 0
0.828849 0.065881 0
0.816834 0.025688 0
0.813617 -0.018141 0
0.816920 -0.061079 0
0.824504 -0.099293 0
0.834896 -0.130060 0
0.847393 -0.151500 0
0.861830 -0.162261 0
0.878275 -0.161459 0
0.896731 -0.148874 0
0.916934 -0.125233 0
0.938299 -0.092372 0
0.959964 -0.053168 0
0.980793 -0.011481 0
0.998832 0.028173 0
1.012622 0.062304 0
1.021298 0.089186 0
1.024347 0.108225 0
1.021546 0.119792 0
1.012970 0.124950 0
0.999088 0.125038 0
0.980895 0.121168 0
0.960009 0.113804 0
0.938580 0.102673 0
0.918984 0.087160 0
0.903359 0.065397 0
0.893748 0.051005 0
1.000000 0.000027 0
0.997132 -0.019778 0
0.988129 -0.042334 0
0.971642 -0.070984 0
0.945011 -0.111146 0
0.903453 -0.173592 0
0.838245 -0.281891 0
0.734165 -0.552469 0
0.548761 -0.531266 0
-0.000230 -0.165522 0
0.392151 -0.034303 0
0.315870 -0.044311 0
0.301630 -0.047291 0
0.320779 -0.064127 0
0.347898 -0.081269 0
0.391305 -0.071195 0
0.452257 -0.017599 0
0.509937 0.053721 0
0.548811 0.116124 0
0.568272 0.168996 0
0.564789 0.210924 0
0.536688 0.240115 0
0.485559 0.255525 0
0.417471 0.255821 0
0.344836 0.238058 0
0.285217 0.198975 0
0.254242 0.137729 0
0.258026 0.057402 0
0.290643 -0.032543 0
0.335428 -0.118800 0
0.381067 -0.190478 0
0.427041 -0.238564 0
0.477599 -0.255237 0
0.537093 -0.236539 0
0.607291 -0.184559 0
0.686203 -0.108033 0
0.765693 -0.022994 0
0.831143 0.051369 0
0.878193 0.108387 0
0.909088 0.151979 0
0.925076 0.184398 0
0.927016 0.207069 0
0.915316 0.221510 0
0.889913 0.229786 0
0.850974 0.234080 0
0.800822 0.234839 0
0.746097 0.228584 0
0.697302 0.208452 0
0.664325 0.168741 0
0.651307 0.109733 0
0.655523 0.038157 0
0.670102 -0.035811 0
0.687619 -0.103671 0
0.703985 -0.161225 0
0.718125 -0.206382 0
0.731120 -0.237121 0
0.745404 -0.250911 0
0.763711 -0.245238 0
0.787833 -0.219016 0
0.817795 -0.173965 0
0.851962 -0.114884 0
0.887724 -0.048766 0
0.921212 0.015538 0
0.948260 0.070814 0
0.967433 0.114401 0
0.978134 0.146168 0
0.980129 0.167189 0
0.973350 0.179382 0
0.958024 0.184993 0
0.935128 0.185729 0
0.906995 0.181720 0
0.877447 0.171113 0
0.850966 0.151052 0
0.831151 0.119755 0
0.819529 0.078144 0
0.815540 0.029822 0
0.817438 -0.020198 0
0.823065 -0.067165 0
0.830601 -0.107761 0
0.838919 -0.140034 0
0.847608 -0.162766 0
0.856861 -0.175029 0
0.867251 -0.176051 0
0.879386 -0.165422 0
0.893565 -0.143504 0
0.909590 -0.111755 0
0.926801 -0.072760 0
0.944206 -0.029965 0
0.960388 0.012461 0
0.973614 0.050731 0
0.982761 0.082589 0
0.987082 0.107106 0
0.986165 0.124324 0
0.979996 0.134899 0
0.969061 0.139641 0
0.954443 0.139047 0
0.937789 0.133041 0
0.921070 0.121093 0
0.906187 0.102758 0
0.894585 0.076536 0
0.887299 0.059265 0
1.000000 0.000028 0
0.996194 -0.012497 0
0.984143 -0.026498 0
0.961650 -0.043496 0
0.924092 -0.065577 0
0.862218 -0.095813 0
0.756316 -0.137640 0
0.563168 -0.209340 0
0.074093 0.000497 0
-0.528131 0.128977 0
0.000000 0.000029 0
-0.034536 -0.035548 0
-0.055745 -0.096815 0
-0.033514 -0.125430 0
-0.027001 -0.133509 0
-0.011750 -0.130693 0
0.030990 -0.089455 0
0.101009 -0.011328 0
0.165673 0.073899 0
0.206411 0.151775 0
0.219503 0.221610 0
0.207424 0.276763 0
0.179806 0.309290 0
0.149114 0.311345 0
0.130466 0.277765 0
0.135174 0.210346 0
0.165605 0.118564 0
0.214246 0.016928 0
0.264303 -0.079328 0
0.306765 -0.162502 0
0.339885 -0.230310 0
0.366346 -0.278361 0
0.392488 -0.300808 0
0.425921 -0.292533 0
0.472269 -0.252175 0
0.532587 -0.184385 0
0.602903 -0.099432 0
0.673207 -0.012575 0
0.730155 0.062287 0
0.770643 0.122288 0
0.795028 0.170490 0
0.803484 0.208738 0
0.796235 0.238743 0
0.774275 0.261870 0
0.740759 0.277788 0
0.702347 0.282858 0
0.668625 0.270528 0
0.648516 0.235130 0
0.645966 0.176596 0
0.658759 0.101571 0
0.680991 0.020548 0
0.705113 -0.055813 0
0.725943 -0.121334 0
0.741132 -0.174752 0
0.750109 -0.216112 0
0.753994 -0.245147 0
0.755585 -0.260444 0
0.758826 -0.259450 0
0.767506 -0.239712 0
0.783677 -0.200882 0
0.806889 -0.146036 0
0.834729 -0.081246 0
0.863869 -0.014302 0
0.889778 0.047023 0
0.909653 0.098197 0