# vtk DataFile Version 2.0
generated by CFD-lab course output (written by Tobias Neckel) 
ASCII

DATASET STRUCTURED_GRID
DIMENSIONS  101 21 1 
POINTS 2121 float

0.000000 0.000000 0
0.100000 0.000000 0
0.200000 0.000000 0
0.300000 0.000000 0
0.400000 0.000000 0
0.500000 0.000000 0
0.600000 0.000000 0
0.700000 0.000000 0
0.800000 0.000000 0
0.900000 0.000000 0
1.000000 0.000000 0
1.100000 0.000000 0
1.200000 0.000000 0
1.300000 0.000000 0
1.400000 0.000000 0
1.500000 0.000000 0
1.600000 0.000000 0
1.700000 0.000000 0
1.800000 0.000000 0
1.900000 0.000000 0
2.000000 0.000000 0
2.100000 0.000000 0
2.200000 0.000000 0
2.300000 0.000000 0
2.400000 0.000000 0
2.500000 0.000000 0
2.600000 0.000000 0
2.700000 0.000000 0
2.800000 0.000000 0
2.900000 0.000000 0
3.000000 0.000000 0
3.100000 0.000000 0
3.200000 0.000000 0
3.300000 0.000000 0
3.400000 0.000000 0
3.500000 0.000000 0
3.600000 0.000000 0
3.700000 0.000000 0
3.800000 0.000000 0
3.900000 0.000000 0
4.000000 0.000000 0
4.100000 0.000000 0
4.200000 0.000000 0
4.300000 0.000000 0
4.400000 0.000000 0
4.500000 0.000000 0
4.600000 0.000000 0
4.700000 0.000000 0
4.800000 0.000000 0
4.900000 0.000000 0
5.000000 0.000000 0
5.100000 0.000000 0
5.200000 0.000000 0
5.300000 0.000000 0
5.400000 0.000000 0
5.500000 0.000000 0
5.600000 0.000000 0
5.700000 0.000000 0
5.800000 0.000000 0
5.900000 0.000000 0
6.000000 0.000000 0
6.100000 0.000000 0
6.200000 0.000000 0
6.300000 0.000000 0
6.400000 0.000000 0
6.500000 0.000000 0
6.600000 0.000000 0
6.700000 0.000000 0
6.800000 0.000000 0
6.900000 0.000000 0
7.000000 0.000000 0
7.100000 0.000000 0
7.200000 0.000000 0
7.300000 0.000000 0
7.400000 0.000000 0
7.500000 0.000000 0
7.600000 0.000000 0
7.700000 0.000000 0
7.800000 0.000000 0
7.900000 0.000000 0
8.000000 0.000000 0
8.100000 0.000000 0
8.200000 0.000000 0
8.300000 0.000000 0
8.400000 0.000000 0
8.500000 0.000000 0
8.600000 0.000000 0
8.700000 0.000000 0
8.800000 0.000000 0
8.900000 0.000000 0
9.000000 0.000000 0
9.100000 0.000000 0
9.200000 0.000000 0
9.300000 0.000000 0
9.400000 0.000000 0
9.500000 0.000000 0
9.600000 0.000000 0
9.700000 0.000000 0
9.800000 0.000000 0
9.900000 0.000000 0
10.000000 0.000000 0
0.000000 0.100000 0
0.100000 0.100000 0
0.200000 0.100000 0
0.300000 0.100000 0
0.400000 0.100000 0
0.500000 0.100000 0
0.600000 0.100000 0
0.700000 0.100000 0
0.800000 0.100000 0
0.900000 0.100000 0
1.000000 0.100000 0
1.100000 0.100000 0
1.200000 0.100000 0
1.300000 0.100000 0
1.400000 0.100000 0
1.500000 0.100000 0
1.600000 0.100000 0
1.700000 0.100000 0
1.800000 0.100000 0
1.900000 0.100000 0
2.000000 0.100000 0
2.100000 0.100000 0
2.200000 0.100000 0
2.300000 0.100000 0
2.400000 0.100000 0
2.500000 0.100000 0
2.600000 0.100000 0
2.700000 0.100000 0
2.800000 0.100000 0
2.900000 0.100000 0
3.000000 0.100000 0
3.100000 0.100000 0
3.200000 0.100000 0
3.300000 0.100000 0
3.400000 0.100000 0
3.500000 0.100000 0
3.600000 0.100000 0
3.700000 0.100000 0
3.800000 0.100000 0
3.900000 0.100000 0
4.000000 0.100000 0
4.100000 0.100000 0
4.200000 0.100000 0
4.300000 0.100000 0
4.400000 0.100000 0
4.500000 0.100000 0
4.600000 0.100000 0
4.700000 0.100000 0
4.800000 0.100000 0
4.900000 0.100000 0
5.000000 0.100000 0
5.100000 0.100000 0
5.200000 0.100000 0
5.300000 0.100000 0
5.400000 0.100000 0
5.500000 0.100000 0
5.600000 0.100000 0
5.700000 0.100000 0
5.800000 0.100000 0
5.900000 0.100000 0
6.000000 0.100000 0
6.100000 0.100000 0
6.200000 0.100000 0
6.300000 0.100000 0
6.400000 0.100000 0
6.500000 0.100000 0
6.600000 0.100000 0
6.700000 0.100000 0
6.800000 0.100000 0
6.900000 0.100000 0
7.000000 0.100000 0
7.100000 0.100000 0
7.200000 0.100000 0
7.300000 0.100000 0
7.400000 0.100000 0
7.500000 0.100000 0
7.600000 0.100000 0
7.700000 0.100000 0
7.800000 0.100000 0
7.900000 0.100000 0
8.000000 0.100000 0
8.100000 0.100000 0
8.200000 0.100000 0
8.300000 0.100000 0
8.400000 0.100000 0
8.500000 0.100000 0
8.600000 0.100000 0
8.700000 0.100000 0
8.800000 0.100000 0
8.900000 0.100000 0
9.000000 0.100000 0
9.100000 0.100000 0
9.200000 0.100000 0
9.300000 0.100000 0
9.400000 0.100000 0
9.500000 0.100000 0
9.600000 0.100000 0
9.700000 0.100000 0
9.800000 0.100000 0
9.900000 0.100000 0
10.000000 0.100000 0
0.000000 0.200000 0
0.100000 0.200000 0
0.200000 0.200000 0
0.300000 0.200000 0
0.400000 0.200000 0
0.500000 0.200000 0
0.600000 0.200000 0
0.700000 0.200000 0
0.800000 0.200000 0
0.900000 0.200000 0
1.000000 0.200000 0
1.100000 0.200000 0
1.200000 0.200000 0
1.300000 0.200000 0
1.400000 0.200000 0
1.500000 0.200000 0
1.600000 0.200000 0
1.700000 0.200000 0
1.800000 0.200000 0
1.900000 0.200000 0
2.000000 0.200000 0
2.100000 0.200000 0
2.200000 0.200000 0
2.300000 0.200000 0
2.400000 0.200000 0
2.500000 0.200000 0
2.600000 0.200000 0
2.700000 0.200000 0
2.800000 0.200000 0
2.900000 0.200000 0
3.000000 0.200000 0
3.100000 0.200000 0
3.200000 0.200000 0
3.300000 0.200000 0
3.400000 0.200000 0
3.500000 0.200000 0
3.600000 0.200000 0
3.700000 0.200000 0
3.800000 0.200000 0
3.900000 0.200000 0
4.000000 0.200000 0
4.100000 0.200000 0
4.200000 0.200000 0
4.300000 0.200000 0
4.400000 0.200000 0
4.500000 0.200000 0
4.600000 0.200000 0
4.700000 0.200000 0
4.800000 0.200000 0
4.900000 0.200000 0
5.000000 0.200000 0
5.100000 0.200000 0
5.200000 0.200000 0
5.300000 0.200000 0
5.400000 0.200000 0
5.500000 0.200000 0
5.600000 0.200000 0
5.700000 0.200000 0
5.800000 0.200000 0
5.900000 0.200000 0
6.000000 0.200000 0
6.100000 0.200000 0
6.200000 0.200000 0
6.300000 0.200000 0
6.400000 0.200000 0
6.500000 0.200000 0
6.600000 0.200000 0
6.700000 0.200000 0
6.800000 0.200000 0
6.900000 0.200000 0
7.000000 0.200000 0
7.100000 0.200000 0
7.200000 0.200000 0
7.300000 0.200000 0
7.400000 0.200000 0
7.500000 0.200000 0
7.600000 0.200000 0
7.700000 0.200000 0
7.800000 0.200000 0
7.900000 0.200000 0
8.000000 0.200000 0
8.100000 0.200000 0
8.200000 0.200000 0
8.300000 0.200000 0
8.400000 0.200000 0
8.500000 0.200000 0
8.600000 0.200000 0
8.700000 0.200000 0
8.800000 0.200000 0
8.900000 0.200000 0
9.000000 0.200000 0
9.100000 0.200000 0
9.200000 0.200000 0
9.300000 0.200000 0
9.400000 0.200000 0
9.500000 0.200000 0
9.600000 0.200000 0
9.700000 0.200000 0
9.800000 0.200000 0
9.900000 0.200000 0
10.000000 0.200000 0
0.000000 0.300000 0
0.100000 0.300000 0
0.200000 0.300000 0
0.300000 0.300000 0
0.400000 0.300000 0
0.500000 0.300000 0
0.600000 0.300000 0
0.700000 0.300000 0
0.800000 0.300000 0
0.900000 0.300000 0
1.000000 0.300000 0
1.100000 0.300000 0
1.200000 0.300000 0
1.300000 0.300000 0
1.400000 0.300000 0
1.500000 0.300000 0
1.600000 0.300000 0
1.700000 0.300000 0
1.800000 0.300000 0
1.900000 0.300000 0
2.000000 0.300000 0
2.100000 0.300000 0
2.200000 0.300000 0
2.300000 0.300000 0
2.400000 0.300000 0
2.500000 0.300000 0
2.600000 0.300000 0
2.700000 0.300000 0
2.800000 0.300000 0
2.900000 0.300000 0
3.000000 0.300000 0
3.100000 0.300000 0
3.200000 0.300000 0
3.300000 0.300000 0
3.400000 0.300000 0
3.500000 0.300000 0
3.600000 0.300000 0
3.700000 0.300000 0
3.800000 0.300000 0
3.900000 0.300000 0
4.000000 0.300000 0
4.100000 0.300000 0
4.200000 0.300000 0
4.300000 0.300000 0
4.400000 0.300000 0
4.500000 0.300000 0
4.600000 0.300000 0
4.700000 0.300000 0
4.800000 0.300000 0
4.900000 0.300000 0
5.000000 0.300000 0
5.100000 0.300000 0
5.200000 0.300000 0
5.300000 0.300000 0
5.400000 0.300000 0
5.500000 0.300000 0
5.600000 0.300000 0
5.700000 0.300000 0
5.800000 0.300000 0
5.900000 0.300000 0
6.000000 0.300000 0
6.100000 0.300000 0
6.200000 0.300000 0
6.300000 0.300000 0
6.400000 0.300000 0
6.500000 0.300000 0
6.600000 0.300000 0
6.700000 0.300000 0
6.800000 0.300000 0
6.900000 0.300000 0
7.000000 0.300000 0
7.100000 0.300000 0
7.200000 0.300000 0
7.300000 0.300000 0
7.400000 0.300000 0
7.500000 0.300000 0
7.600000 0.300000 0
7.700000 0.300000 0
7.800000 0.300000 0
7.900000 0.300000 0
8.000000 0.300000 0
8.100000 0.300000 0
8.200000 0.300000 0
8.300000 0.300000 0
8.400000 0.300000 0
8.500000 0.300000 0
8.600000 0.300000 0
8.700000 0.300000 0
8.800000 0.300000 0
8.900000 0.300000 0
9.000000 0.300000 0
9.100000 0.300000 0
9.200000 0.300000 0
9.300000 0.300000 0
9.400000 0.300000 0
9.500000 0.300000 0
9.600000 0.300000 0
9.700000 0.300000 0
9.800000 0.300000 0
9.900000 0.300000 0
10.000000 0.300000 0
0.000000 0.400000 0
0.100000 0.400000 0
0.200000 0.400000 0
0.300000 0.400000 0
0.400000 0.400000 0
0.500000 0.400000 0
0.600000 0.400000 0
0.700000 0.400000 0
0.800000 0.400000 0
0.900000 0.400000 0
1.000000 0.400000 0
1.100000 0.400000 0
1.200000 0.400000 0
1.300000 0.400000 0
1.400000 0.400000 0
1.500000 0.400000 0
1.600000 0.400000 0
1.700000 0.400000 0
1.800000 0.400000 0
1.900000 0.400000 0
2.000000 0.400000 0
2.100000 0.400000 0
2.200000 0.400000 0
2.300000 0.400000 0
2.400000 0.400000 0
2.500000 0.400000 0
2.600000 0.400000 0
2.700000 0.400000 0
2.800000 0.400000 0
2.900000 0.400000 0
3.000000 0.400000 0
3.100000 0.400000 0
3.200000 0.400000 0
3.300000 0.400000 0
3.400000 0.400000 0
3.500000 0.400000 0
3.600000 0.400000 0
3.700000 0.400000 0
3.800000 0.400000 0
3.900000 0.400000 0
4.000000 0.400000 0
4.100000 0.400000 0
4.200000 0.400000 0
4.300000 0.400000 0
4.400000 0.400000 0
4.500000 0.400000 0
4.600000 0.400000 0
4.700000 0.400000 0
4.800000 0.400000 0
4.900000 0.400000 0
5.000000 0.400000 0
5.100000 0.400000 0
5.200000 0.400000 0
5.300000 0.400000 0
5.400000 0.400000 0
5.500000 0.400000 0
5.600000 0.400000 0
5.700000 0.400000 0
5.800000 0.400000 0
5.900000 0.400000 0
6.000000 0.400000 0
6.100000 0.400000 0
6.200000 0.400000 0
6.300000 0.400000 0
6.400000 0.400000 0
6.500000 0.400000 0
6.600000 0.400000 0
6.700000 0.400000 0
6.800000 0.400000 0
6.900000 0.400000 0
7.000000 0.400000 0
7.100000 0.400000 0
7.200000 0.400000 0
7.300000 0.400000 0
7.400000 0.400000 0
7.500000 0.400000 0
7.600000 0.400000 0
7.700000 0.400000 0
7.800000 0.400000 0
7.900000 0.400000 0
8.000000 0.400000 0
8.100000 0.400000 0
8.200000 0.400000 0
8.300000 0.400000 0
8.400000 0.400000 0
8.500000 0.400000 0
8.600000 0.400000 0
[...]
POINT_DATA 2121 

VECTORS velocity float
0.500000 0.000000 0
0.000000 0.000000 0
0.000006 0.000000 0
0.000018 0.000000 0
0.000038 0.000000 0
0.000065 0.000000 0
0.000094 0.000000 0
0.000132 0.000000 0
0.000170 0.000000 0
0.000204 0.000000 0
0.000225 0.000000 0
0.000226 0.000000 0
0.000197 0.000000 0
0.000126 0.000000 0
0.000003 0.000000 0
-0.000178 0.000000 0
-0.000418 0.000000 0
-0.000709 0.000000 0
-0.001032 0.000000 0
-0.001354 0.000000 0
-0.001618 0.000000 0
-0.001750 0.000000 0
-0.001687 0.000000 0
-0.001398 0.000000 0
-0.000894 0.000000 0
-0.000240 0.000000 0
0.000482 0.000000 0
0.001191 0.000000 0
0.001832 0.000000 0
0.002357 0.000000 0
0.002739 0.000000 0
0.002961 0.000000 0
0.003011 0.000000 0
0.002885 0.000000 0
0.002578 0.000000 0
0.002089 0.000000 0
0.001418 0.000000 0
0.000558 0.000000 0
-0.000501 0.000000 0
-0.001719 0.000000 0
-0.002975 0.000000 0
-0.004147 0.000000 0
-0.005079 0.000000 0
-0.005604 0.000000 0
-0.005572 0.000000 0
-0.004918 0.000000 0
-0.003701 0.000000 0
-0.002124 0.000000 0
-0.000476 0.000000 0
0.001085 0.000000 0
0.002461 0.000000 0
0.003584 0.000000 0
0.004415 0.000000 0
0.004944 0.000000 0
0.005180 0.000000 0
0.005145 0.000000 0
0.004860 0.000000 0
0.004341 0.000000 0
0.003599 0.000000 0
0.002638 0.000000 0
0.001478 0.000000 0
0.000173 0.000000 0
-0.001115 0.000000 0
-0.002271 0.000000 0
-0.003286 0.000000 0
-0.004165 0.000000 0
-0.004903 0.000000 0
-0.005474 0.000000 0
-0.005821 0.000000 0
-0.005852 0.000000 0
-0.005459 0.000000 0
-0.004566 0.000000 0
-0.003195 0.000000 0
-0.001518 0.000000 0
0.000223 0.000000 0
0.001916 0.000000 0
0.003464 0.000000 0
0.004762 0.000000 0
0.005711 0.000000 0
0.006228 0.000000 0
0.006252 0.000000 0
0.005760 0.000000 0
0.004783 0.000000 0
0.003420 0.000000 0
0.001836 0.000000 0
0.000240 0.000000 0
-0.001113 0.000000 0
-0.002107 0.000000 0
-0.002834 0.000000 0
-0.003388 0.000000 0
-0.003845 0.000000 0
-0.004259 0.000000 0
-0.004657 0.000000 0
-0.005037 0.000000 0
-0.005365 0.000000 0
-0.005588 0.000000 0
-0.005645 0.000000 0
-0.005493 0.000000 0
-0.005139 0.000000 0
-0.004671 0.000000 0
-0.004352 0.000000 0
1.000000 -0.000002 0
1.002694 -0.004848 0
1.010994 -0.010459 0
1.025256 -0.016514 0
1.045855 -0.022790 0
1.072987 -0.028886 0
1.106368 -0.034109 0
1.144790 -0.037528 0
1.185847 -0.038200 0
1.225851 -0.035787 0
1.261440 -0.030878 0
1.290559 -0.024521 0
1.312442 -0.017739 0
1.327270 -0.011325 0
1.335852 -0.005830 0
1.339418 -0.001603 0
1.339431 0.001177 0
1.337450 0.002500 0
1.334975 0.002515 0
1.333291 0.001551 0
1.333255 0.000123 0
1.335084 -0.001090 0
1.338157 -0.001384 0
1.341072 -0.000282 0
1.342041 0.002332 0
1.339442 0.006191 0
1.332202 0.010782 0
1.319900 0.015552 0
1.302682 0.020012 0
1.281139 0.023794 0
1.256149 0.026653 0
1.228772 0.028433 0
1.200171 0.029042 0
1.171565 0.028427 0
1.144208 0.026563 0
1.119358 0.023436 0
1.098267 0.019030 0
1.082160 0.013288 0
1.072205 0.006159 0
1.069458 -0.002101 0
1.074762 -0.010815 0
1.088512 -0.019121 0
1.110298 -0.026034 0
1.138624 -0.030488 0
1.170860 -0.031561 0
1.203466 -0.028780 0
1.232457 -0.022393 0
1.254156 -0.013475 0
1.266059 -0.003590 0
1.267390 0.006056 0
1.258807 0.014804 0
1.241622 0.022183 0
1.217528 0.027898 0
1.188397 0.031820 0
1.156118 0.033951 0
1.122514 0.034361 0
1.089291 0.033138 0
1.058034 0.030350 0
1.030203 0.026032 0
1.007093 0.020217 0
0.989744 0.013021 0
0.978831 0.004846 0
0.974611 -0.003413 0
0.977005 -0.010926 0
0.985634 -0.017430 0
0.999975 -0.022908 0
1.019417 -0.027345 0
1.043277 -0.030638 0
1.070745 -0.032528 0
1.100725 -0.032577 0
1.131627 -0.030256 0
1.161249 -0.025173 0
1.186863 -0.017427 0
1.205560 -0.007856 0
1.214877 0.002345 0
1.213658 0.012326 0
1.202322 0.021532 0
1.181993 0.029392 0
1.154360 0.035346 0
1.121591 0.038893 0
1.086206 0.039640 0
1.050915 0.037377 0
1.018361 0.032196 0
0.990782 0.024593 0
0.969668 0.015482 0
0.955560 0.006129 0
0.948149 -0.002009 0
0.946634 -0.008096 0
0.949872 -0.012322 0
0.956742 -0.015217 0
0.966397 -0.017249 0
0.978301 -0.018754 0
0.992165 -0.019911 0
1.007834 -0.020726 0
1.025116 -0.021038 0
1.043606 -0.020566 0
1.062579 -0.019011 0
1.080989 -0.016236 0
1.097622 -0.012410 0
1.111363 -0.009815 0
1.122266 -0.009037 0
1.000000 -0.000004 0
1.003023 -0.010980 0
1.011798 -0.022540 0
1.026643 -0.034842 0
1.048158 -0.047724 0
1.076986 -0.060508 0
1.113388 -0.071798 0
1.156543 -0.079484 0
1.203973 -0.081074 0
1.249782 -0.075611 0
1.289262 -0.064729 0
1.320365 -0.051026 0
1.342833 -0.036736 0
1.357319 -0.023437 0
1.364979 -0.012177 0
1.367311 -0.003606 0
1.365991 0.001945 0
1.362780 0.004436 0
1.359412 0.004152 0
1.357434 0.001728 0
1.358017 -0.001776 0
1.361633 -0.004878 0
1.367603 -0.005965 0
1.374011 -0.003866 0
1.378317 0.001639 0
1.378399 0.009836 0
1.373054 0.019541 0
1.361930 0.029522 0
1.345362 0.038761 0
1.324131 0.046532 0
1.299258 0.052362 0
1.271880 0.055972 0
1.243194 0.057198 0
1.214417 0.055951 0
1.186774 0.052194 0
1.161476 0.045926 0
1.139691 0.037181 0
1.122509 0.026044 0
1.110900 0.012684 0
1.105748 -0.002574 0
1.108024 -0.019070 0
1.118508 -0.035551 0
1.137296 -0.050122 0
1.163518 -0.060567 0
1.195355 -0.064842 0
1.230055 -0.061590 0
1.263919 -0.050680 0
1.292588 -0.033591 0
1.311947 -0.013223 0
1.319573 0.007261 0
1.315884 0.025773 0
1.302548 0.041279 0
1.281571 0.053222 0
1.255047 0.061405 0
1.224999 0.065876 0
1.193292 0.066821 0
1.161595 0.064472 0
1.131357 0.059080 0
1.103780 0.050934 0
1.079763 0.040451 0
1.059847 0.028254 0
1.044227 0.015125 0
1.032941 0.001817 0
1.026239 -0.011032 0
1.024293 -0.022979 0
1.027120 -0.033792 0
1.034702 -0.043311 0
1.047096 -0.051336 0
1.064421 -0.057453 0
1.086609 -0.060885 0
1.113062 -0.060525 0
1.142394 -0.055235 0
1.172356 -0.044309 0
1.199883 -0.028011 0
1.221380 -0.008095 0
1.233707 0.012557 0
1.235799 0.031667 0
1.228488 0.047960 0
1.213234 0.060399 0
1.191905 0.068151 0
1.166596 0.070670 0
1.139410 0.067839 0
1.112234 0.060127 0
1.086549 0.048688 0
1.063335 0.035218 0
1.043125 0.021514 0
1.026226 0.008920 0
1.013016 -0.001729 0
1.003578 -0.010116 0
0.997610 -0.016535 0
0.994735 -0.021570 0
0.994778 -0.025780 0
0.997809 -0.029546 0
1.004051 -0.032964 0
1.013672 -0.035785 0
1.026566 -0.037477 0
1.042221 -0.037397 0
1.059710 -0.035057 0
1.077750 -0.030387 0
1.094865 -0.024657 0
1.107571 -0.021390 0
1.000000 -0.000006 0
1.002629 -0.016630 0
1.010595 -0.034071 0
1.024511 -0.052877 0
1.045491 -0.073139 0
1.075037 -0.094117 0
1.114635 -0.113675 0
1.164629 -0.128128 0
1.223529 -0.131451 0
1.278547 -0.121088 0
1.322463 -0.101470 0
1.354326 -0.078100 0
1.375383 -0.054702 0
1.387175 -0.033482 0
1.391351 -0.015831 0
1.389759 -0.002620 0
1.384317 0.005706 0
1.377095 0.009084 0
1.370200 0.007879 0
1.365584 0.002966 0
1.364973 -0.004061 0
1.369528 -0.010664 0
1.378741 -0.013759 0
1.389889 -0.011004 0
1.398844 -0.002073 0
1.402160 0.011444 0
1.398415 0.027254 0
1.387533 0.043244 0
1.370286 0.057808 0
1.347834 0.069895 0
1.321444 0.078899 0
1.292375 0.084491 0
1.261856 0.086499 0
1.231091 0.084840 0
1.201258 0.079497 0
1.173510 0.070513 0
1.148939 0.057991 0
1.128553 0.042072 0
1.113233 0.022915 0
1.103728 0.000771 0
1.100727 -0.023580 0
1.104892 -0.048394 0
1.116515 -0.071040 0
1.135478 -0.088540 0
1.161475 -0.098091 0
1.193636 -0.097335 0
1.229742 -0.084919 0
1.265727 -0.061499 0
1.296048 -0.030573 0
1.315258 0.002117 0
1.320899 0.031822 0
1.314749 0.056488 0
1.299250 0.075392 0
1.276864 0.088388 0
1.249874 0.095702 0
1.220278 0.097761 0
1.189759 0.095069 0
1.159671 0.088162 0
1.131050 0.077624 0
1.104645 0.064148 0
1.080964 0.048555 0
1.060316 0.031749 0
1.042791 0.014571 0
1.028228 -0.002282 0
1.016430 -0.018315 0
1.007514 -0.033320 0
1.002216 -0.047323 0
1.001732 -0.060357 0
1.007469 -0.072040 0
1.020380 -0.081217 0
1.040436 -0.086039 0
1.066551 -0.084465 0
1.096779 -0.074914 0
1.128540 -0.056878 0
1.158736 -0.031478 0
1.183757 -0.002094 0
1.200207 0.026748 0
1.207323 0.051953 0
1.205899 0.071925 0
1.197198 0.085526 0
1.182709 0.092131 0
1.163940 0.091736 0
1.142274 0.085055 0
1.118934 0.073491 0
1.095033 0.058905 0
1.071603 0.043236 0
1.049501 0.028098 0
1.029216 0.014548 0
1.011034 0.003079 0
0.995123 -0.006379 0
0.981721 -0.014422 0
0.971379 -0.021834 0
0.964928 -0.029189 0
0.963124 -0.036594 0
0.966348 -0.043558 0
0.974413 -0.049119 0
0.986568 -0.052158 0
1.001633 -0.051769 0
1.018117 -0.047569 0
1.034321 -0.039640 0
1.046834 -0.034436 0
1.000000 -0.000008 0
1.002100 -0.021562 0
1.008609 -0.044423 0
1.020434 -0.069743 0
1.039318 -0.098250 0
1.068020 -0.129658 0
1.110301 -0.161402 0
1.169451 -0.188388 0
1.249659 -0.195002 0
1.316787 -0.174554 0
1.362275 -0.140516 0
1.390807 -0.103953 0
1.407066 -0.069594 0
1.413561 -0.039414 0
1.412115 -0.014767 0
1.404476 0.003424 0
1.392595 0.014611 0
1.378914 0.018569 0
1.366038 0.015680 0
1.356399 0.006968 0
1.352137 -0.005709 0
1.355650 -0.018645 0
1.367633 -0.026333 0
1.385091 -0.023984 0
1.401764 -0.010644 0
1.411004 0.010268 0
1.410273 0.034170 0
1.400248 0.057647 0
1.382534 0.078457 0
1.358902 0.095370 0
1.330939 0.107816 0
1.300020 0.115553 0
1.267385 0.118476 0
1.234215 0.116543 0
1.201669 0.109769 0
1.170885 0.098239 0
1.142946 0.082132 0
1.118792 0.061744 0
1.098982 0.037504 0
1.083324 0.009929 0
1.070926 -0.020235 0
1.061646 -0.051336 0
1.056913 -0.080703 0
1.058806 -0.105520 0
1.070039 -0.122992 0
1.092444 -0.129850 0
1.125579 -0.122766 0
1.166295 -0.099895 0
1.208928 -0.062756 0
1.245980 -0.017597 0
1.270084 0.026274 0
1.279324 0.062922 0
1.276265 0.091102 0
1.263644 0.110777 0
1.244020 0.122459 0
1.219660 0.126932 0
1.192474 0.125077 0
1.164008 0.117787 0
1.135466 0.105957 0
1.107743 0.090534 0
1.081417 0.072579 0
1.056672 0.053294 0
1.033208 0.033901 0
1.010360 0.015325 0
0.987711 -0.002269 0
0.965898 -0.019580 0
0.947158 -0.037529 0
0.934872 -0.056589 0
0.931705 -0.076101 0
0.938564 -0.093849 0
0.954729 -0.106693 0
0.978530 -0.111576 0
1.007905 -0.106296 0
1.040648 -0.089967 0
1.074430 -0.063313 0
1.106629 -0.028916 0
1.133816 0.008097 0
1.152907 0.042263 0
1.163532 0.070519 0
1.166222 0.091337 0
1.161865 0.103926 0
1.151500 0.108273 0
1.136200 0.105131 0
1.117051 0.095928 0
1.095142 0.082548 0
1.071502 0.067043 0
1.046984 0.051304 0
1.022209 0.036733 0
0.997722 0.023971 0
0.974338 0.012773 0
0.953293 0.002170 0
0.936060 -0.008991 0
0.924049 -0.021295 0
0.918218 -0.034387 0
0.918672 -0.047077 0
0.924724 -0.057699 0
0.935182 -0.064619 0
0.948599 -0.066608 0
0.963385 -0.063078 0
0.977821 -0.053376 0
0.989173 -0.046689 0
1.000000 -0.000009 0
1.001267 -0.025231 0
1.005301 -0.052409 0
1.013123 -0.083589 0
1.026909 -0.120729 0
1.050730 -0.165108 0
1.091657 -0.215116 0
1.159410 -0.267495 0
1.276736 -0.278793 0
1.349946 -0.233710 0
1.383129 -0.175498 0
1.397839 -0.122900 0
1.403552 -0.077466 0
1.401947 -0.038538 0
1.393348 -0.006749 0
1.377755 0.016902 0
1.356974 0.031281 0
1.333911 0.035658 0
1.311885 0.030407 0
1.293902 0.016876 0
1.282124 -0.003310 0
1.278957 -0.026165 0
1.288247 -0.043215 0
1.309374 -0.045149 0
1.336397 -0.027985 0
1.358620 0.002938 0
1.367039 0.038007 0
1.362982 0.070981 0
1.349526 0.099150 0
1.329249 0.121485 0
1.303936 0.137775 0
1.274886 0.148040 0
1.243211 0.152298 0
1.209995 0.150550 0
1.176344 0.142821 0
1.143355 0.129231 0
1.112030 0.110079 0
1.083100 0.086032 0
1.056564 0.058377 0
1.030953 0.028825 0
1.003471 -0.001899 0
0.972648 -0.034377 0
0.942733 -0.068194 0
0.922823 -0.101660 0
0.919226 -0.131722 0
0.933405 -0.152870 0
0.963543 -0.158768 0
1.006115 -0.144849 0
1.056404 -0.110264 0
1.108328 -0.059048 0
1.154004 -0.001528 0
1.185440 0.050303 0
1.201999 0.091070 0
1.206101 0.120630 0
1.200176 0.139682 0
1.186515 0.149304 0
1.167175 0.150718 0
1.143923 0.145166 0
1.118196 0.133887 0
1.091012 0.118194 0
1.062803 0.099622 0
1.033255 0.079954 0
1.001585 0.060881 0
0.967528 0.043212 0
0.932596 0.026144 0
0.900320 0.007232 0
0.875005 -0.016297 0
0.860131 -0.044903 0
0.856932 -0.075730 0
0.864350 -0.104238 0
0.880394 -0.126002 0
0.903097 -0.137640 0
0.930769 -0.137031 0
0.961878 -0.123403 0
0.994894 -0.097462 0
1.028145 -0.061484 0
1.059587 -0.019534 0
1.085923 0.022233 0
1.104919 0.058607 0
1.116273 0.087190 0
1.120217 0.106851 0
1.117291 0.117400 0
1.108203 0.119503 0
1.093742 0.114547 0
1.074705 0.104452 0
1.051836 0.091391 0
1.025854 0.077387 0
0.997660 0.063805 0
0.968631 0.050944 0
0.940776 0.038045 0
0.916450 0.023852 0
0.897693 0.007407 0
0.885644 -0.011348 0
0.880452 -0.031218 0
0.881437 -0.050066 0
0.887422 -0.065629 0
0.897067 -0.076035 0
0.909025 -0.079973 0
0.921923 -0.076791 0
0.934300 -0.065429 0
0.944045 -0.057494 0
1.000000 -0.000011 0
1.000073 -0.026861 0
1.000425 -0.056285 0
1.001782 -0.091355 0
1.005988 -0.135862 0
1.017355 -0.194413 0
1.045664 -0.270090 0
1.110856 -0.373474 0
1.278202 -0.385544 0
1.327478 -0.280953 0
1.316399 -0.188416 0
1.301330 -0.124385 0
1.291342 -0.073710 0
1.282245 -0.029214 0
1.266820 0.009426 0
1.242641 0.039808 0
1.211233 0.058469 0
1.175956 0.063670 0
1.140797 0.055699 0
1.109307 0.036733 0
1.083855 0.009231 0
1.065733 -0.024780 0
1.060728 -0.056764 0
1.076767 -0.072137 0
1.112976 -0.059886 0
1.158680 -0.020374 0
1.196441 0.029805 0
1.215514 0.075156 0
1.221161 0.112185 0
1.217372 0.140955 0
1.206067 0.162174 0
1.188367 0.176273 0
1.165261 0.183361 0
1.137824 0.183404 0
1.107178 0.176404 0
1.074184 0.162548 0
1.038761 0.142383 0
0.999218 0.117206 0
0.953016 0.089648 0
0.899930 0.063023 0
0.844964 0.038074 0
0.796598 0.009407 0
0.762523 -0.030871 0
0.747418 -0.082006 0
0.750840 -0.133569 0
0.769894 -0.174165 0
0.801825 -0.195477 0
0.844408 -0.192761 0
0.895282 -0.164977 0
0.951271 -0.115203 0
1.007814 -0.050841 0
1.057265 0.014924 0
1.092765 0.070437 0
1.114612 0.112597 0
1.124456 0.142043 0
1.124106 0.159930 0
1.115353 0.167666 0
1.099818 0.166763 0
1.078769 0.158865 0
1.052876 0.145924 0
1.022060 0.130333 0
0.985856 0.114508 0
0.944608 0.099625 0
0.900945 0.084312 0
0.860055 0.064938 0
0.827906 0.038010 0
0.808325 0.002661 0
0.801387 -0.038514 0
0.804681 -0.080318 0
0.815380 -0.117308 0
0.831452 -0.145438 0
0.851762 -0.161951 0
0.875676 -0.165077 0
0.902629 -0.154094 0
0.931849 -0.129584 0
0.962268 -0.093614 0
0.992533 -0.049685 0
1.020718 -0.003072 0
1.043772 0.040167 0
1.060335 0.076037 0
1.069968 0.102907 0
1.072666 0.120285 0
1.068668 0.128679 0
1.058338 0.129424 0
1.042102 0.124451 0
1.020501 0.115889 0
0.994414 0.105475 0
0.965372 0.093952 0
0.935698 0.080850 0
0.908229 0.064951 0
0.885609 0.045252 0
0.869564 0.021814 0
0.860510 -0.004054 0
0.857690 -0.030180 0
0.859851 -0.054047 0
0.865712 -0.073329 0
0.874139 -0.086222 0
0.884124 -0.091463 0
0.894679 -0.088351 0
0.904720 -0.075498 0
0.912600 -0.066516 0
1.000000 -0.000012 0
0.998617 -0.025659 0
0.994366 -0.054124 0
0.987102 -0.089156 0
0.976979 -0.136307 0
0.965551 -0.204790 0
0.959296 -0.308624 0
0.980676 -0.500040 0
1.143315 -0.495421 0
1.131012 -0.271912 0
1.028882 -0.149357 0
0.974661 -0.097851 0
0.951657 -0.058385 0
0.945291 -0.014017 0
0.928288 0.032861 0
0.897923 0.072503 0
0.854062 0.097978 0
0.798555 0.106103 0
0.735729 0.097061 0
0.674639 0.073815 0
0.628644 0.040254 0
0.609124 -0.003052 0
0.619319 -0.054256 0
0.656170 -0.097394 0
0.715596 -0.109897 0
0.791833 -0.080529 0
0.873698 -0.018830 0
0.942172 0.046256 0
0.987545 0.097286 0
1.015883 0.136574 0
1.031003 0.166775 0
1.034391 0.188840 0
1.027158 0.202836 0
1.010253 0.208628 0
0.984156 0.206456 0
0.948383 0.197644 0
0.901427 0.185041 0
0.842225 0.171773 0
0.773376 0.157667 0
0.703846 0.136880 0
0.647244 0.101437 0
0.614864 0.048071 0
0.608229 -0.019008 0
0.618613 -0.089971 0
0.637726 -0.154195 0
0.662076 -0.203854 0
0.691710 -0.233285 0
0.727971 -0.238314 0
0.771652 -0.217134 0
0.821965 -0.171583 0
0.876415 -0.107525 0
0.930930 -0.034651 0
0.977756 0.033720 0
1.012237 0.088935 0
1.034645 0.130185 0
1.045829 0.158405 0
1.046857 0.175004 0
1.038734 0.181747 0
1.022112 0.180825 0
0.997161 0.174899 0
0.963933 0.166638 0
0.923505 0.157402 0
0.879322 0.145789 0
0.837298 0.127763 0
0.803809 0.099182 0
0.782845 0.058963 0
0.774686 0.010223 0
0.776584 -0.041257 0
0.784638 -0.089720 0
0.796114 -0.131007 0
0.809748 -0.162384 0
0.825340 -0.181863 0
0.843235 -0.187899 0
0.863801 -0.179579 0
0.887017 -0.157105 0
0.912313 -0.122172 0
0.938650 -0.077988 0
0.964669 -0.029009 0
0.988121 0.018988 0
1.006709 0.060992 0
1.019397 0.094519 0
1.025652 0.118700 0
1.025248 0.133830 0
1.018167 0.141111 0
1.004626 0.142285 0
0.985256 0.139073 0
0.961383 0.132511 0
0.935165 0.122518 0
0.909371 0.108085 0
0.886746 0.088134 0
0.869281 0.062517 0
0.857818 0.032507 0
0.852129 0.000527 0
0.851252 -0.030558 0
0.853924 -0.058087 0
0.859024 -0.079915 0
0.865686 -0.094444 0
0.873239 -0.100510 0
0.881083 -0.097385 0
0.888550 -0.083348 0
0.894376 -0.073537 0
1.000000 -0.000012 0
0.997197 -0.021232 0
0.988378 -0.044775 0
0.972185 -0.073973 0
0.945967 -0.114316 0
0.904965 -0.176737 0
0.840485 -0.285222 0
0.737243 -0.557500 0
0.553362 -0.535886 0
-0.000052 -0.166526 0
0.404394 -0.032072 0
0.336675 -0.047165 0
0.346370 -0.044342 0
0.378544 -0.005843 0
0.396925 0.056805 0
0.381548 0.114046 0
0.341840 0.157846 0
0.284589 0.182010 0
0.220707 0.179615 0
0.166754 0.143811 0
0.142537 0.074734 0
0.160427 -0.015465 0
0.208633 -0.103811 0
0.272028 -0.168413 0
0.346116 -0.195552 0
0.431639 -0.178478 0
0.528942 -0.120539 0
0.629888 -0.038697 0
0.715275 0.038468 0
0.776263 0.097491 0
0.817423 0.143661 0
0.841298 0.180113 0
0.848865 0.207495 0
0.840448 0.226401 0
0.815790 0.238269 0
0.774698 0.245273 0
0.719003 0.248538 0
0.655402 0.245256 0
0.596133 0.228028 0
0.554432 0.189158 0
0.537399 0.127061 0
0.543083 0.048429 0
0.562900 -0.034613 0
0.586168 -0.111498 0
0.607509 -0.177031 0
0.626313 -0.228151 0
0.644896 -0.261378 0
0.667004 -0.272710 0
0.696112 -0.258975 0
0.733736 -0.219969 0
0.778730 -0.159809 0
0.827893 -0.086420 0
0.876313 -0.010873 0
0.916612 0.055705 0
0.946248 0.108448 0
0.964909 0.147715 0
0.972740 0.174757 0
0.969964 0.191505 0
0.956733 0.200435 0
0.933406 0.204099 0
0.901415 0.203985 0
0.864304 0.199117 0
0.827820 0.185830 0
0.798204 0.159823 0
0.779547 0.119391 0
0.772355 0.067135 0
0.774312 0.008923 0
0.781923 -0.048464 0
0.791927 -0.099845 0
0.802300 -0.142416 0
0.812239 -0.174664 0
0.821974 -0.195438 0
0.832469 -0.203540 0
0.844941 -0.197881 0
0.860268 -0.178100 0
0.878567 -0.145249 0
0.899153 -0.102044 0
0.920787 -0.052546 0
0.941855 -0.001876 0
0.959924 0.044759 0
0.973419 0.083963 0
0.981373 0.114433 0
0.983207 0.136161 0
0.978688 0.150042 0
0.968038 0.157357 0
0.952146 0.159128 0
0.932716 0.155563 0
0.912136 0.145962 0
0.892970 0.129270 0
0.877287 0.105042 0
0.866193 0.074181 0
0.859804 0.038968 0
0.857543 0.002514 0
0.858481 -0.031973 0
0.861549 -0.061816 0
0.865835 -0.085087 0
0.870691 -0.100433 0
0.875720 -0.106856 0
0.880689 -0.103658 0
0.885385 -0.088787 0
0.889003 -0.078385 0
1.000000 -0.000012 0
0.996213 -0.014043 0
0.984235 -0.029118 0
0.961871 -0.046751 0
0.924509 -0.069093 0
0.862881 -0.099316 0
0.757202 -0.140910 0
0.563984 -0.212925 0
0.072533 -0.000423 0
-0.535060 0.131702 0
0.000000 0.000024 0
-0.030671 -0.050658 0
-0.054331 -0.100253 0
-0.045285 -0.064565 0
-0.032767 0.029868 0
-0.031451 0.127597 0
-0.047092 0.194944 0
-0.072092 0.227239 0
-0.092115 0.214893 0
-0.091697 0.151977 0
-0.057327 0.046571 0
-0.002822 -0.069152 0
0.052211 -0.165857 0
0.104585 -0.234879 0
0.158394 -0.269512 0
0.220034 -0.263359 0
0.294356 -0.217083 0
0.381649 -0.140083 0
0.473419 -0.049095 0
0.551344 0.034420 0
0.607451 0.101734 0
0.643575 0.157393 0
0.660410 0.203681 0
0.658142 0.241698 0
0.637750 0.272202 0
0.602812 0.294428 0
0.561236 0.304334 0
0.524859 0.294644 0
0.505260 0.258640 0
0.507977 0.195618 0
0.530209 0.112792 0
0.563691 0.022575 0
0.597151 -0.062087 0
0.624150 -0.134576 0
0.642626 -0.194340 0
0.652910 -0.241245 0
0.657614 -0.273982 0
0.661452 -0.289536 0
0.670144 -0.283869 0
0.688267 -0.254204 0
0.717203 -0.201685 0
0.754745 -0.132238 0
0.796457 -0.055003 0
0.836038 0.018997 0
0.867660 0.081885 0
0.889541 0.131909 0
0.900942 0.169945 0
0.901566 0.197751 0
0.891617 0.217380 0
0.872363 0.230214 0
0.846873 0.235737 0
0.820154 0.230994 0
0.797936 0.211888 0