# vtk DataFile Version 2.0
generated by CFD-lab course output (written by Tobias Neckel) 
ASCII

DATASET STRUCTURED_GRID
DIMENSIONS  101 21 1 
POINTS 2121 float

0.000000 0.000000 0
0.100000 0.000000 0
0.200000 0.000000 0
0.300000 0.000000 0
0.400000 0.000000 0
0.500000 0.000000 0
0.600000 0.000000 0
0.700000 0.000000 0
0.800000 0.000000 0
0.900000 0.000000 0
1.000000 0.000000 0
1.100000 0.000000 0
1.200000 0.000000 0
1.300000 0.000000 0
1.400000 0.000000 0
1.500000 0.000000 0
1.600000 0.000000 0
1.700000 0.000000 0
1.800000 0.000000 0
1.900000 0.000000 0
2.000000 0.000000 0
2.100000 0.000000 0
2.200000 0.000000 0
2.300000 0.000000 0
2.400000 0.000000 0
2.500000 0.000000 0
2.600000 0.000000 0
2.700000 0.000000 0
2.800000 0.000000 0
2.900000 0.000000 0
3.000000 0.000000 0
3.100000 0.000000 0
3.200000 0.000000 0
3.300000 0.000000 0
3.400000 0.000000 0
3.500000 0.000000 0
3.600000 0.000000 0
3.700000 0.000000 0
3.800000 0.000000 0
3.900000 0.000000 0
4.000000 0.000000 0
4.100000 0.000000 0
4.200000 0.000000 0
4.300000 0.000000 0
4.400000 0.000000 0
4.500000 0.000000 0
4.600000 0.000000 0
4.700000 0.000000 0
4.800000 0.000000 0
4.900000 0.000000 0
5.000000 0.000000 0
5.100000 0.000000 0
5.200000 0.000000 0
5.300000 0.000000 0
5.400000 0.000000 0
5.500000 0.000000 0
5.600000 0.000000 0
5.700000 0.000000 0
5.800000 0.000000 0
5.900000 0.000000 0
6.000000 0.000000 0
6.100000 0.000000 0
6.200000 0.000000 0
6.300000 0.000000 0
6.400000 0.000000 0
6.500000 0.000000 0
6.600000 0.000000 0
6.700000 0.000000 0
6.800000 0.000000 0
6.900000 0.000000 0
7.000000 0.000000 0
7.100000 0.000000 0
7.200000 0.000000 0
7.300000 0.000000 0
7.400000 0.000000 0
7.500000 0.000000 0
7.600000 0.000000 0
7.700000 0.000000 0
7.800000 0.000000 0
7.900000 0.000000 0
8.000000 0.000000 0
8.100000 0.000000 0
8.200000 0.000000 0
8.300000 0.000000 0
8.400000 0.000000 0
8.500000 0.000000 0
8.600000 0.000000 0
8.700000 0.000000 0
8.800000 0.000000 0
8.900000 0.000000 0
9.000000 0.000000 0
9.100000 0.000000 0
9.200000 0.000000 0
9.300000 0.000000 0
9.400000 0.000000 0
9.500000 0.000000 0
9.600000 0.000000 0
9.700000 0.000000 0
9.800000 0.000000 0
9.900000 0.000000 0
10.000000 0.000000 0
0.000000 0.100000 0
0.100000 0.100000 0
0.200000 0.100000 0
0.300000 0.100000 0
0.400000 0.100000 0
0.500000 0.100000 0
0.600000 0.100000 0
0.700000 0.100000 0
0.800000 0.100000 0
0.900000 0.100000 0
1.000000 0.100000 0
1.100000 0.100000 0
1.200000 0.100000 0
1.300000 0.100000 0
1.400000 0.100000 0
1.500000 0.100000 0
1.600000 0.100000 0
1.700000 0.100000 0
1.800000 0.100000 0
1.900000 0.100000 0
2.000000 0.100000 0
2.100000 0.100000 0
2.200000 0.100000 0
2.300000 0.100000 0
2.400000 0.100000 0
2.500000 0.100000 0
2.600000 0.100000 0
2.700000 0.100000 0
2.800000 0.100000 0
2.900000 0.100000 0
3.000000 0.100000 0
3.100000 0.100000 0
3.200000 0.100000 0
3.300000 0.100000 0
3.400000 0.100000 0
3.500000 0.100000 0
3.600000 0.100000 0
3.700000 0.100000 0
3.800000 0.100000 0
3.900000 0.100000 0
4.000000 0.100000 0
4.100000 0.100000 0
4.200000 0.100000 0
4.300000 0.100000 0
4.400000 0.100000 0
4.500000 0.100000 0
4.600000 0.100000 0
4.700000 0.100000 0
4.800000 0.100000 0
4.900000 0.100000 0
5.000000 0.100000 0
5.100000 0.100000 0
5.200000 0.100000 0
5.300000 0.100000 0
5.400000 0.100000 0
5.500000 0.100000 0
5.600000 0.100000 0
5.700000 0.100000 0
5.800000 0.100000 0
5.900000 0.100000 0
6.000000 0.100000 0
6.100000 0.100000 0
6.200000 0.100000 0
6.300000 0.100000 0
6.400000 0.100000 0
6.500000 0.100000 0
6.600000 0.100000 0
6.700000 0.100000 0
6.800000 0.100000 0
6.900000 0.100000 0
7.000000 0.100000 0
7.100000 0.100000 0
7.200000 0.100000 0
7.300000 0.100000 0
7.400000 0.100000 0
7.500000 0.100000 0
7.600000 0.100000 0
7.700000 0.100000 0
7.800000 0.100000 0
7.900000 0.100000 0
8.000000 0.100000 0
8.100000 0.100000 0
8.200000 0.100000 0
8.300000 0.100000 0
8.400000 0.100000 0
8.500000 0.100000 0
8.600000 0.100000 0
8.700000 0.100000 0
8.800000 0.100000 0
8.900000 0.100000 0
9.000000 0.100000 0
9.100000 0.100000 0
9.200000 0.100000 0
9.300000 0.100000 0
9.400000 0.100000 0
9.500000 0.100000 0
9.600000 0.100000 0
9.700000 0.100000 0
9.800000 0.100000 0
9.900000 0.100000 0
10.000000 0.100000 0
0.000000 0.200000 0
0.100000 0.200000 0
0.200000 0.200000 0
0.300000 0.200000 0
0.400000 0.200000 0
0.500000 0.200000 0
0.600000 0.200000 0
0.700000 0.200000 0
0.800000 0.200000 0
0.900000 0.200000 0
1.000000 0.200000 0
1.100000 0.200000 0
1.200000 0.200000 0
1.300000 0.200000 0
1.400000 0.200000 0
1.500000 0.200000 0
1.600000 0.200000 0
1.700000 0.200000 0
1.800000 0.200000 0
1.900000 0.200000 0
2.000000 0.200000 0
2.100000 0.200000 0
2.200000 0.200000 0
2.300000 0.200000 0
2.400000 0.200000 0
2.500000 0.200000 0
2.600000 0.200000 0
2.700000 0.200000 0
2.800000 0.200000 0
2.900000 0.200000 0
3.000000 0.200000 0
3.100000 0.200000 0
3.200000 0.200000 0
3.300000 0.200000 0
3.400000 0.200000 0
3.500000 0.200000 0
3.600000 0.200000 0
3.700000 0.200000 0
3.800000 0.200000 0
3.900000 0.200000 0
4.000000 0.200000 0
4.100000 0.200000 0
4.200000 0.200000 0
4.300000 0.200000 0
4.400000 0.200000 0
4.500000 0.200000 0
4.600000 0.200000 0
4.700000 0.200000 0
4.800000 0.200000 0
4.900000 0.200000 0
5.000000 0.200000 0
5.100000 0.200000 0
5.200000 0.200000 0
5.300000 0.200000 0
5.400000 0.200000 0
5.500000 0.200000 0
5.600000 0.200000 0
5.700000 0.200000 0
5.800000 0.200000 0
5.900000 0.200000 0
6.000000 0.200000 0
6.100000 0.200000 0
6.200000 0.200000 0
6.300000 0.200000 0
6.400000 0.200000 0
6.500000 0.200000 0
6.600000 0.200000 0
6.700000 0.200000 0
6.800000 0.200000 0
6.900000 0.200000 0
7.000000 0.200000 0
7.100000 0.200000 0
7.200000 0.200000 0
7.300000 0.200000 0
7.400000 0.200000 0
7.500000 0.200000 0
7.600000 0.200000 0
7.700000 0.200000 0
7.800000 0.200000 0
7.900000 0.200000 0
8.000000 0.200000 0
8.100000 0.200000 0
8.200000 0.200000 0
8.300000 0.200000 0
8.400000 0.200000 0
8.500000 0.200000 0
8.600000 0.200000 0
8.700000 0.200000 0
8.800000 0.200000 0
8.900000 0.200000 0
9.000000 0.200000 0
9.100000 0.200000 0
9.200000 0.200000 0
9.300000 0.200000 0
9.400000 0.200000 0
9.500000 0.200000 0
9.600000 0.200000 0
9.700000 0.200000 0
9.800000 0.200000 0
9.900000 0.200000 0
10.000000 0.200000 0
0.000000 0.300000 0
0.100000 0.300000 0
0.200000 0.300000 0
0.300000 0.300000 0
0.400000 0.300000 0
0.500000 0.300000 0
0.600000 0.300000 0
0.700000 0.300000 0
0.800000 0.300000 0
0.900000 0.300000 0
1.000000 0.300000 0
1.100000 0.300000 0
1.200000 0.300000 0
1.300000 0.300000 0
1.400000 0.300000 0
1.500000 0.300000 0
1.600000 0.300000 0
1.700000 0.300000 0
1.800000 0.300000 0
1.900000 0.300000 0
2.000000 0.300000 0
2.100000 0.300000 0
2.200000 0.300000 0
2.300000 0.300000 0
2.400000 0.300000 0
2.500000 0.300000 0
2.600000 0.300000 0
2.700000 0.300000 0
2.800000 0.300000 0
2.900000 0.300000 0
3.000000 0.300000 0
3.100000 0.300000 0
3.200000 0.300000 0
3.300000 0.300000 0
3.400000 0.300000 0
3.500000 0.300000 0
3.600000 0.300000 0
3.700000 0.300000 0
3.800000 0.300000 0
3.900000 0.300000 0
4.000000 0.300000 0
4.100000 0.300000 0
4.200000 0.300000 0
4.300000 0.300000 0
4.400000 0.300000 0
4.500000 0.300000 0
4.600000 0.300000 0
4.700000 0.300000 0
4.800000 0.300000 0
4.900000 0.300000 0
5.000000 0.300000 0
5.100000 0.300000 0
5.200000 0.300000 0
5.300000 0.300000 0
5.400000 0.300000 0
5.500000 0.300000 0
5.600000 0.300000 0
5.700000 0.300000 0
5.800000 0.300000 0
5.900000 0.300000 0
6.000000 0.300000 0
6.100000 0.300000 0
6.200000 0.300000 0
6.300000 0.300000 0
6.400000 0.300000 0
6.500000 0.300000 0
6.600000 0.300000 0
6.700000 0.300000 0
6.800000 0.300000 0
6.900000 0.300000 0
7.000000 0.300000 0
7.100000 0.300000 0
7.200000 0.300000 0
7.300000 0.300000 0
7.400000 0.300000 0
7.500000 0.300000 0
7.600000 0.300000 0
7.700000 0.300000 0
7.800000 0.300000 0
7.900000 0.300000 0
8.000000 0.300000 0
8.100000 0.300000 0
8.200000 0.300000 0
8.300000 0.300000 0
8.400000 0.300000 0
8.500000 0.300000 0
8.600000 0.300000 0
8.700000 0.300000 0
8.800000 0.300000 0
8.900000 0.300000 0
9.000000 0.300000 0
9.100000 0.300000 0
9.200000 0.300000 0
9.300000 0.300000 0
9.400000 0.300000 0
9.500000 0.300000 0
9.600000 0.300000 0
9.700000 0.300000 0
9.800000 0.300000 0
9.900000 0.300000 0
10.000000 0.300000 0
0.000000 0.400000 0
0.100000 0.400000 0
0.200000 0.400000 0
0.300000 0.400000 0
0.400000 0.400000 0
0.500000 0.400000 0
0.600000 0.400000 0
0.700000 0.400000 0
0.800000 0.400000 0
0.900000 0.400000 0
1.000000 0.400000 0
1.100000 0.400000 0
1.200000 0.400000 0
1.300000 0.400000 0
1.400000 0.400000 0
1.500000 0.400000 0
1.600000 0.400000 0
1.700000 0.400000 0
1.800000 0.400000 0
1.900000 0.400000 0
2.000000 0.400000 0
2.100000 0.400000 0
2.200000 0.400000 0
2.300000 0.400000 0
2.400000 0.400000 0
2.500000 0.400000 0
2.600000 0.400000 0
2.700000 0.400000 0
2.800000 0.400000 0
2.900000 0.400000 0
3.000000 0.400000 0
3.100000 0.400000 0
3.200000 0.400000 0
3.300000 0.400000 0
3.400000 0.400000 0
3.500000 0.400000 0
3.600000 0.400000 0
3.700000 0.400000 0
3.800000 0.400000 0
3.900000 0.400000 0
4.000000 0.400000 0
4.100000 0.400000 0
4.200000 0.400000 0
4.300000 0.400000 0
4.400000 0.400000 0
4.500000 0.400000 0
4.600000 0.400000 0
4.700000 0.400000 0
4.800000 0.400000 0
4.900000 0.400000 0
5.000000 0.400000 0
5.100000 0.400000 0
5.200000 0.400000 0
5.300000 0.400000 0
5.400000 0.400000 0
5.500000 0.400000 0
5.600000 0.400000 0
5.700000 0.400000 0
5.800000 0.400000 0
5.900000 0.400000 0
6.000000 0.400000 0
6.100000 0.400000 0
6.200000 0.400000 0
6.300000 0.400000 0
6.400000 0.400000 0
6.500000 0.400000 0
6.600000 0.400000 0
6.700000 0.400000 0
6.800000 0.400000 0
6.900000 0.400000 0
7.000000 0.400000 0
7.100000 0.400000 0
7.200000 0.400000 0
7.300000 0.400000 0
7.400000 0.400000 0
7.500000 0.400000 0
7.600000 0.400000 0
7.700000 0.400000 0
7.800000 0.400000 0
7.900000 0.400000 0
8.000000 0.400000 0
8.100000 0.400000 0
8.200000 0.400000 0
8.300000 0.400000 0
8.400000 0.400000 0
8.500000 0.400000 0
8.600000 0.400000 0
[...]
POINT_DATA 2121 

VECTORS velocity float
0.500000 0.000000 0
0.000003 0.000000 0
0.000010 0.000000 0
0.000027 0.000000 0
0.000048 0.000000 0
0.000075 0.000000 0
0.000105 0.000000 0
0.000136 0.000000 0
0.000163 0.000000 0
0.000179 0.000000 0
0.000176 0.000000 0
0.000145 0.000000 0
0.000078 0.000000 0
-0.000033 0.000000 0
-0.000196 0.000000 0
-0.000410 0.000000 0
-0.000667 0.000000 0
-0.000951 0.000000 0
-0.001229 0.000000 0
-0.001452 0.000000 0
-0.001556 0.000000 0
-0.001483 0.000000 0
-0.001207 0.000000 0
-0.000733 0.000000 0
-0.000119 0.000000 0
0.000558 0.000000 0
0.001225 0.000000 0
0.001826 0.000000 0
0.002314 0.000000 0
0.002664 0.000000 0
0.002855 0.000000 0
0.002876 0.000000 0
0.002722 0.000000 0
0.002388 0.000000 0
0.001874 0.000000 0
0.001181 0.000000 0
0.000302 0.000000 0
-0.000769 0.000000 0
-0.001980 0.000000 0
-0.003206 0.000000 0
-0.004317 0.000000 0
-0.005148 0.000000 0
-0.005529 0.000000 0
-0.005329 0.000000 0
-0.004514 0.000000 0
-0.003189 0.000000 0
-0.001591 0.000000 0
0.000009 0.000000 0
0.001489 0.000000 0
0.002766 0.000000 0
0.003781 0.000000 0
0.004504 0.000000 0
0.004937 0.000000 0
0.005092 0.000000 0
0.004992 0.000000 0
0.004656 0.000000 0
0.004096 0.000000 0
0.003319 0.000000 0
0.002327 0.000000 0
0.001138 0.000000 0
-0.000182 0.000000 0
-0.001446 0.000000 0
-0.002589 0.000000 0
-0.003599 0.000000 0
-0.004472 0.000000 0
-0.005190 0.000000 0
-0.005714 0.000000 0
-0.005969 0.000000 0
-0.005854 0.000000 0
-0.005266 0.000000 0
-0.004159 0.000000 0
-0.002616 0.000000 0
-0.000865 0.000000 0
0.000889 0.000000 0
0.002551 0.000000 0
0.004020 0.000000 0
0.005194 0.000000 0
0.005984 0.000000 0
0.006321 0.000000 0
0.006162 0.000000 0
0.005502 0.000000 0
0.004394 0.000000 0
0.002952 0.000000 0
0.001346 0.000000 0
-0.000206 0.000000 0
-0.001439 0.000000 0
-0.002352 0.000000 0
-0.003030 0.000000 0
-0.003561 0.000000 0
-0.004013 0.000000 0
-0.004430 0.000000 0
-0.004825 0.000000 0
-0.005184 0.000000 0
-0.005458 0.000000 0
-0.005581 0.000000 0
-0.005482 0.000000 0
-0.005122 0.000000 0
-0.004518 0.000000 0
-0.003767 0.000000 0
-0.003025 0.000000 0
-0.002482 0.000000 0
1.000000 -0.000002 0
1.002687 -0.004803 0
1.010920 -0.010376 0
1.025067 -0.016385 0
1.045497 -0.022611 0
1.072415 -0.028659 0
1.105531 -0.033852 0
1.143662 -0.037262 0
1.184434 -0.037963 0
1.224204 -0.035634 0
1.259672 -0.030872 0
1.288850 -0.024739 0
1.311053 -0.018261 0
1.326545 -0.012223 0
1.336217 -0.007159 0
1.341344 -0.003372 0
1.343391 -0.000977 0
1.343836 0.000100 0
1.344001 0.000128 0
1.344846 -0.000426 0
1.346736 -0.000928 0
1.349247 -0.000726 0
1.351208 0.000667 0
1.351056 0.003396 0
1.347338 0.007231 0
1.339083 0.011711 0
1.325917 0.016323 0
1.308011 0.020608 0
1.285959 0.024211 0
1.260637 0.026891 0
1.233105 0.028491 0
1.204528 0.028916 0
1.176132 0.028113 0
1.149175 0.026058 0
1.124917 0.022743 0
1.104607 0.018153 0
1.089462 0.012240 0
1.080638 0.004975 0
1.079169 -0.003327 0
1.085845 -0.011945 0
1.100935 -0.019978 0
1.123803 -0.026384 0
1.152656 -0.030081 0
1.184559 -0.030218 0
1.215746 -0.026500 0
1.242219 -0.019424 0
1.260597 -0.010272 0
1.268922 -0.000553 0
1.266971 0.008709 0
1.255627 0.016937 0
1.236320 0.023720 0
1.210784 0.028820 0
1.180864 0.032165 0
1.148387 0.033785 0
1.115087 0.033763 0
1.082585 0.032181 0
1.052389 0.029091 0
1.025888 0.024510 0
1.004312 0.018458 0
0.988635 0.011066 0
0.979468 0.002810 0
0.977038 -0.005379 0
0.981245 -0.012781 0
0.991718 -0.019205 0
1.007932 -0.024598 0
1.029245 -0.028888 0
1.054897 -0.031896 0
1.083936 -0.033281 0
1.115038 -0.032551 0
1.146320 -0.029195 0
1.175291 -0.022975 0
1.199037 -0.014288 0
1.214692 -0.004237 0
1.220178 0.006033 0
1.215057 0.015823 0
1.200118 0.024585 0
1.176748 0.031758 0
1.146853 0.036822 0
1.112753 0.039343 0
1.077046 0.039012 0
1.042425 0.035730 0
1.011402 0.029707 0
0.985981 0.021539 0
0.967351 0.012209 0
0.955771 0.003041 0
0.950764 -0.004598 0
0.951443 -0.010203 0
0.956645 -0.014155 0
0.965361 -0.016959 0
0.976873 -0.019035 0
0.990750 -0.020668 0
1.006783 -0.021980 0
1.024840 -0.022911 0
1.044681 -0.023233 0
1.065790 -0.022613 0
1.087283 -0.020722 0
1.107935 -0.017419 0
1.126346 -0.012953 0
1.141259 -0.008062 0
1.151948 -0.005854 0
1.160208 -0.005534 0
1.000000 -0.000005 0
1.003007 -0.010899 0
1.011716 -0.022371 0
1.026442 -0.034573 0
1.047786 -0.047349 0
1.076383 -0.060039 0
1.112499 -0.071256 0
1.155333 -0.078914 0
1.202422 -0.080556 0
1.247930 -0.075254 0
1.287212 -0.064664 0
1.318281 -0.051401 0
1.340965 -0.037714 0
1.356018 -0.025181 0
1.364706 -0.014809 0
1.368596 -0.007175 0
1.369403 -0.002486 0
1.368861 -0.000600 0
1.368569 -0.000998 0
1.369813 -0.002724 0
1.373219 -0.004396 0
1.378332 -0.004472 0
1.383499 -0.001806 0
1.386454 0.003876 0
1.385269 0.011977 0
1.378811 0.021423 0
1.366760 0.031073 0
1.349455 0.039958 0
1.327664 0.047372 0
1.302399 0.052849 0
1.274796 0.056103 0
1.246058 0.056964 0
1.217414 0.055343 0
1.190100 0.051205 0
1.165334 0.044557 0
1.144286 0.035444 0
1.128048 0.023957 0
1.117606 0.010283 0
1.113883 -0.005215 0
1.117884 -0.021770 0
1.130302 -0.037958 0
1.151020 -0.051717 0
1.178863 -0.060749 0
1.211630 -0.063081 0
1.246122 -0.057650 0
1.278258 -0.044842 0
1.303612 -0.026695 0
1.318562 -0.006368 0
1.321780 0.013299 0
1.314370 0.030653 0
1.298132 0.044844 0
1.275092 0.055457 0
1.247293 0.062397 0
1.216661 0.065777 0
1.184944 0.065801 0
1.153694 0.062697 0
1.124254 0.056696 0
1.097727 0.048075 0
1.074923 0.037250 0
1.056310 0.024841 0
1.042040 0.011594 0
1.032208 -0.001781 0
1.027119 -0.014683 0
1.026929 -0.026689 0
1.031654 -0.037527 0
1.041288 -0.046964 0
1.055892 -0.054690 0
1.075522 -0.060137 0
1.099930 -0.062379 0
1.128223 -0.060247 0
1.158658 -0.052710 0
1.188597 -0.039395 0
1.214637 -0.021135 0
1.233113 -0.000361 0
1.241465 0.020062 0
1.239632 0.038310 0
1.228788 0.053266 0
1.210617 0.063996 0
1.187134 0.069806 0
1.160496 0.070326 0
1.132783 0.065642 0
1.105782 0.056440 0
1.080825 0.044046 0
1.058724 0.030203 0
1.039884 0.016577 0
1.024596 0.004316 0
1.013200 -0.005896 0
1.005636 -0.013937 0
1.001546 -0.020248 0
1.000633 -0.025411 0
1.002833 -0.029935 0
1.008320 -0.034116 0
1.017369 -0.037925 0
1.030116 -0.040978 0
1.046351 -0.042631 0
1.065435 -0.042175 0
1.086321 -0.039093 0
1.107641 -0.033354 0
1.127809 -0.025632 0
1.145225 -0.018979 0
1.156939 -0.015535 0
1.000000 -0.000008 0
1.002608 -0.016511 0
1.010509 -0.033813 0
1.024305 -0.052461 0
1.045105 -0.072558 0
1.074399 -0.093379 0
1.113683 -0.112809 0
1.163301 -0.127193 0
1.221756 -0.130567 0
1.276363 -0.120431 0
1.319953 -0.101232 0
1.351610 -0.078499 0
1.372657 -0.056002 0
1.384781 -0.035964 0
1.389792 -0.019728 0
1.389658 -0.008060 0
1.386428 -0.001231 0
1.382178 0.000943 0
1.378957 -0.000822 0
1.378644 -0.005078 0
1.382569 -0.009455 0
1.390479 -0.011009 0
1.399934 -0.007452 0
1.407108 0.001627 0
1.408869 0.014873 0
1.403858 0.030219 0
1.391972 0.045677 0
1.373936 0.059700 0
1.350866 0.071264 0
1.324003 0.079755 0
1.294604 0.084827 0
1.263912 0.086294 0
1.233155 0.084066 0
1.203541 0.078134 0
1.176237 0.068553 0
1.152347 0.055434 0
1.132885 0.038916 0
1.118748 0.019140 0
1.110740 -0.003603 0
1.109671 -0.028361 0
1.116213 -0.053109 0
1.130532 -0.074939 0
1.152321 -0.090684 0
1.180946 -0.097471 0
1.214977 -0.093124 0
1.251443 -0.076913 0
1.285574 -0.050577 0
1.311613 -0.018723 0
1.324936 0.012900 0
1.325149 0.040584 0
1.314572 0.062996 0
1.295710 0.079658 0
1.270978 0.090596 0
1.242534 0.096134 0
1.212223 0.096729 0
1.181563 0.092870 0
1.151764 0.085057 0
1.123743 0.073839 0
1.098160 0.059874 0
1.075463 0.043947 0
1.055909 0.026910 0
1.039519 0.009542 0
1.026106 -0.007502 0
1.015519 -0.023739 0
1.008053 -0.038956 0
1.004582 -0.053124 0
1.006411 -0.066126 0
1.014897 -0.077315 0
1.030747 -0.085249 0
1.053592 -0.087919 0
1.082007 -0.083346 0
1.113736 -0.070265 0
1.145887 -0.048753 0
1.175029 -0.020795 0
1.197293 0.009304 0
1.210030 0.037262 0
1.213458 0.060773 0
1.208650 0.078475 0
1.197055 0.089462 0
1.180259 0.093362 0
1.159797 0.090443 0
1.137043 0.081663 0
1.113198 0.068595 0
1.089348 0.053146 0
1.066471 0.037164 0
1.045290 0.022079 0
1.026166 0.008750 0
1.009328 -0.002509 0
0.994913 -0.011964 0
0.983261 -0.020330 0
0.975107 -0.028363 0
0.971348 -0.036524 0
0.972713 -0.044714 0
0.979462 -0.052223 0
0.991255 -0.057939 0
1.007232 -0.060700 0
1.026184 -0.059633 0
1.046686 -0.054448 0
1.067147 -0.045653 0
1.085852 -0.034991 0
1.098824 -0.028319 0
1.000000 -0.000011 0
1.002078 -0.021404 0
1.008523 -0.044072 0
1.020227 -0.069174 0
1.038922 -0.097448 0
1.067361 -0.128623 0
1.109295 -0.160163 0
1.168009 -0.186994 0
1.247628 -0.193625 0
1.314237 -0.173459 0
1.359265 -0.139918 0
1.387328 -0.104109 0
1.403128 -0.070886 0
1.409403 -0.042310 0
1.408226 -0.019677 0
1.401703 -0.003803 0
1.391914 0.005001 0
1.381352 0.006873 0
1.372589 0.002534 0
1.368068 -0.006342 0
1.370458 -0.016234 0
1.380816 -0.021833 0
1.396314 -0.018433 0
1.410783 -0.005061 0
1.417939 0.015226 0
1.415681 0.038318 0
1.404522 0.060992 0
1.385959 0.081060 0
1.361653 0.097301 0
1.333133 0.109108 0
1.301764 0.116190 0
1.268812 0.118409 0
1.235502 0.115710 0
1.203039 0.108119 0
1.172592 0.095746 0
1.145248 0.078792 0
1.121927 0.057557 0
1.103141 0.032429 0
1.088660 0.003864 0
1.077721 -0.027238 0
1.070651 -0.058813 0
1.068890 -0.087819 0
1.074480 -0.111158 0
1.089866 -0.125733 0
1.116283 -0.128146 0
1.152485 -0.115440 0
1.194385 -0.086867 0
1.235359 -0.045731 0
1.267409 -0.000237 0
1.284505 0.041017 0
1.287541 0.074282 0
1.279378 0.099049 0
1.262790 0.115573 0
1.240271 0.124532 0
1.213950 0.126771 0
1.185579 0.123154 0
1.156543 0.114515 0
1.127911 0.101678 0
1.100455 0.085529 0
1.074632 0.067091 0
1.050471 0.047537 0
1.027502 0.028022 0
1.004988 0.009318 0
0.982658 -0.008636 0
0.961539 -0.026588 0
0.944427 -0.045318 0
0.934763 -0.065002 0
0.934843 -0.084470 0
0.945086 -0.101070 0
0.964412 -0.111504 0
0.990945 -0.112853 0
1.022489 -0.103274 0
1.056694 -0.082428 0
1.091011 -0.051767 0
1.122435 -0.014940 0
1.147115 0.022146 0
1.163002 0.054646 0
1.170334 0.080398 0
1.169898 0.098197 0
1.162745 0.107583 0
1.150012 0.108857 0
1.132836 0.103037 0
1.112345 0.091738 0
1.089633 0.076926 0
1.065676 0.060630 0
1.041223 0.044615 0
1.016798 0.030060 0
0.992961 0.017310 0
0.970659 0.005813 0
0.951256 -0.005611 0
0.936316 -0.018027 0
0.927280 -0.031727 0
0.924912 -0.046045 0
0.929061 -0.059525 0
0.938869 -0.070407 0
0.953095 -0.077110 0
0.970347 -0.078551 0
0.989180 -0.074321 0
1.008063 -0.064803 0
1.025332 -0.050662 0
1.037707 -0.041309 0
1.000000 -0.000013 0
1.001247 -0.025033 0
1.005220 -0.051967 0
1.012925 -0.082866 0
1.026526 -0.119698 0
1.050081 -0.163758 0
1.090648 -0.213462 0
1.157924 -0.265532 0
1.274527 -0.276803 0
1.347267 -0.232076 0
1.380000 -0.174328 0
1.393985 -0.122364 0
1.398522 -0.078073 0
1.395629 -0.041053 0
1.386282 -0.012021 0
1.370804 0.008258 0
1.351386 0.019122 0
1.331179 0.020266 0
1.313431 0.012458 0
1.300870 -0.002953 0
1.296365 -0.022202 0
1.304222 -0.036861 0
1.323861 -0.037419 0
1.348850 -0.020000 0
1.368105 0.009973 0
1.373941 0.043634 0
1.368057 0.075396 0
1.353306 0.102566 0
1.331999 0.124086 0
1.305798 0.139639 0
1.275970 0.149145 0
1.243652 0.152552 0
1.209987 0.149834 0
1.176141 0.141039 0
1.143239 0.126340 0
1.112258 0.106098 0
1.083844 0.081025 0
1.057887 0.052410 0
1.032804 0.021821 0
1.005769 -0.010347 0
0.975817 -0.044272 0
0.948551 -0.078762 0
0.932788 -0.111656 0
0.933983 -0.139273 0
0.952953 -0.155744 0
0.987442 -0.155017 0
1.033434 -0.133451 0
1.085459 -0.091747 0
1.136359 -0.036247 0
1.177127 0.020451 0
1.201920 0.068122 0
1.212543 0.104409 0
1.211587 0.129702 0
1.201542 0.144973 0
1.184670 0.151420 0
1.162946 0.150276 0
1.138029 0.142724 0
1.111229 0.129926 0
1.083402 0.113151 0
1.054744 0.093931 0
1.024676 0.074040 0
0.992297 0.055025 0
0.957592 0.037344 0
0.922647 0.019711 0
0.891473 -0.000723 0
0.868475 -0.026345 0
0.856830 -0.056539 0
0.857062 -0.087635 0
0.867657 -0.114815 0
0.886514 -0.133776 0
0.911695 -0.141422 0
0.941517 -0.136013 0
0.974395 -0.117275 0
1.008675 -0.086537 0
1.042480 -0.046801 0
1.073244 -0.003305 0
1.097403 0.037555 0
1.113728 0.071579 0
1.122239 0.097050 0
1.123390 0.113248 0
1.117877 0.120351 0
1.106509 0.119328 0
1.090132 0.111795 0
1.069547 0.099810 0
1.045467 0.085569 0
1.018608 0.070952 0
0.989964 0.057008 0
0.961130 0.043626 0
0.934345 0.029737 0
0.912026 0.014010 0
0.896022 -0.004391 0
0.887198 -0.025123 0
0.885438 -0.046498 0
0.889849 -0.066184 0
0.899185 -0.081976 0
0.912155 -0.092181 0
0.927522 -0.095720 0
0.944068 -0.092167 0
0.960496 -0.081807 0
0.975357 -0.064636 0
0.986219 -0.053144 0
1.000000 -0.000016 0
1.000056 -0.026625 0
1.000356 -0.055757 0
1.001609 -0.090486 0
1.005650 -0.134610 0
1.016775 -0.192752 0
1.044745 -0.268013 0
1.109476 -0.370879 0
1.276113 -0.382975 0
1.325345 -0.278937 0
1.314212 -0.186639 0
1.298569 -0.122630 0
1.286712 -0.072523 0
1.274691 -0.030062 0
1.256242 0.005154 0
1.229862 0.031097 0
1.197866 0.044625 0
1.164028 0.044823 0
1.132392 0.032837 0
1.106331 0.010723 0
1.087995 -0.019583 0
1.082603 -0.049329 0
1.097758 -0.063063 0
1.132497 -0.049307 0
1.175304 -0.009868 0
1.208009 0.038364 0
1.222963 0.081623 0
1.225849 0.117114 0
1.219959 0.144806 0
1.206922 0.165133 0
1.187724 0.178332 0
1.163335 0.184387 0
1.134871 0.183217 0
1.103509 0.174863 0
1.070082 0.159627 0
1.034304 0.138188 0
0.994149 0.111929 0
0.947031 0.083472 0
0.893337 0.055987 0
0.838899 0.029754 0
0.792309 -0.001589 0
0.761126 -0.044786 0
0.749603 -0.096588 0
0.756751 -0.145898 0
0.779649 -0.181607 0
0.815593 -0.195923 0
0.862177 -0.184883 0
0.916585 -0.148656 0
0.974928 -0.091906 0
1.031350 -0.024545 0
1.076761 0.038865 0
1.107171 0.089382 0
1.124167 0.126573 0
1.129633 0.151448 0
1.125485 0.165366 0
1.113539 0.169795 0
1.095372 0.166231 0
1.072121 0.156304 0
1.044220 0.142013 0
1.011332 0.125816 0
0.972942 0.109984 0
0.929826 0.095107 0
0.885457 0.078969 0
0.845724 0.057486 0
0.816508 0.027587 0
0.800632 -0.010672 0
0.797199 -0.053585 0
0.803339 -0.095294 0
0.816316 -0.130519 0
0.834368 -0.155541 0
0.856564 -0.167856 0
0.882337 -0.165974 0
0.911054 -0.149586 0
0.941798 -0.119852 0
0.973333 -0.079509 0
1.004101 -0.032777 0
1.031475 0.014163 0
1.052725 0.055563 0
1.067032 0.088534 0
1.074202 0.111945 0
1.074400 0.125737 0
1.067978 0.130781 0
1.055359 0.128697 0
1.037002 0.121587 0
1.013511 0.111565 0
0.985934 0.100115 0
0.956088 0.087536 0
0.926603 0.072928 0
0.900466 0.054916 0
0.880203 0.032710 0
0.867174 0.006799 0
0.861285 -0.021145 0
0.861498 -0.048697 0
0.866497 -0.073273 0
0.875061 -0.092713 0
0.886171 -0.105447 0
0.898949 -0.110465 0
0.912535 -0.107295 0
0.925956 -0.096091 0
0.938054 -0.076384 0
0.946968 -0.063204 0
1.000000 -0.000018 0
0.998605 -0.025393 0
0.994316 -0.053526 0
0.986976 -0.088166 0
0.976729 -0.134870 0
0.965113 -0.202859 0
0.958586 -0.306170 0
0.979584 -0.496907 0
1.141833 -0.492678 0
1.130235 -0.270178 0
1.028848 -0.147552 0
0.975178 -0.094859 0
0.951012 -0.054187 0
0.937653 -0.010578 0
0.912557 0.032812 0
0.874023 0.066634 0
0.823384 0.084953 0
0.764329 0.085735 0
0.704327 0.070151 0
0.655370 0.041446 0
0.630018 0.001528 0
0.635324 -0.046625 0
0.669609 -0.087315 0
0.728155 -0.097550 0
0.804161 -0.065542 0
0.884056 -0.004029 0
0.948125 0.057552 0
0.989374 0.105567 0
1.014902 0.143008 0
1.027694 0.171870 0
1.028954 0.192728 0
1.019692 0.205401 0
1.000779 0.209657 0
0.972560 0.205826 0
0.934350 0.195544 0
0.884601 0.182032 0
0.822738 0.168299 0
0.752445 0.153226 0
0.683771 0.129959 0
0.630543 0.090686 0
0.602987 0.033505 0
0.600239 -0.036053 0
0.613033 -0.107280 0
0.634065 -0.169320 0
0.660753 -0.214588 0
0.693574 -0.237544 0
0.733791 -0.234444 0
0.781710 -0.204499 0
0.835884 -0.151012 0
0.893150 -0.081383 0
0.947904 -0.007699 0
0.991685 0.057002 0
1.022481 0.107239 0
1.041060 0.143654 0
1.048513 0.167513 0
1.046013 0.180387 0
1.034542 0.184140 0
1.014624 0.181077 0
0.986274 0.173939 0
0.949618 0.165209 0
0.906295 0.155546 0
0.860718 0.142511 0
0.819546 0.121449 0
0.788997 0.088663 0
0.772054 0.044372 0
0.767827 -0.007032 0
0.772595 -0.059243 0
0.782475 -0.106750 0
0.795169 -0.145841 0
0.809844 -0.174023 0
0.826606 -0.189392 0
0.845932 -0.190503 0
0.868128 -0.176735 0
0.892981 -0.148815 0
0.919689 -0.109103 0
0.947015 -0.061448 0
0.973350 -0.011070 0
0.995898 0.036023 0
1.012920 0.075574 0
1.023617 0.105880 0
1.027626 0.126573 0
1.024835 0.138366 0
1.015314 0.142768 0
0.999394 0.141656 0
0.977914 0.136635 0
0.952514 0.128375 0
0.925694 0.116338 0
0.900422 0.099248 0
0.879375 0.076138 0
0.864233 0.047302 0
0.855439 0.014527 0
0.852420 -0.019446 0
0.853954 -0.051709 0
0.858769 -0.079745 0
0.865850 -0.101648 0
0.874463 -0.116066 0
0.884069 -0.122082 0
0.894180 -0.119170 0
0.904194 -0.107323 0
0.913301 -0.085646 0
0.920004 -0.071172 0
1.000000 -0.000019 0
0.997191 -0.020947 0
0.988354 -0.044134 0
0.972125 -0.072906 0
0.945847 -0.112755 0
0.904747 -0.174616 0
0.840098 -0.282490 0
0.736500 -0.554133 0
0.552557 -0.533631 0
0.000096 -0.165953 0
0.405038 -0.031579 0
0.338565 -0.044789 0
0.345792 -0.034993 0
0.370079 0.008397 0
0.373668 0.068785 0
0.345291 0.120267 0
0.295368 0.154314 0
0.234959 0.163876 0
0.179045 0.141796 0
0.146198 0.085034 0
0.153178 0.000462 0
0.196342 -0.088922 0
0.258663 -0.155896 0
0.334049 -0.183862 0
0.422438 -0.165773 0
0.523358 -0.105604 0
0.625137 -0.023699 0
0.708461 0.050332 0
0.766905 0.106482 0
0.805817 0.151077 0
0.827234 0.186330 0
0.831997 0.212558 0
0.820286 0.230346 0
0.791769 0.241291 0
0.746513 0.247586 0
0.687299 0.249802 0
0.622365 0.244088 0
0.565079 0.222445 0
0.528243 0.177894 0
0.517107 0.110542 0
0.527858 0.028719 0
0.550419 -0.054829 0
0.574506 -0.130415 0
0.596079 -0.193620 0
0.615596 -0.241115 0
0.636098 -0.268960 0
0.661583 -0.273020 0
0.695162 -0.250750 0
0.737515 -0.203347 0
0.786635 -0.136567 0
0.838654 -0.059670 0
0.886959 0.014805 0
0.924986 0.077196 0
0.951663 0.125414 0
0.966992 0.160412 0
0.971257 0.183764 0
0.964708 0.197619 0
0.947510 0.204571 0
0.920224 0.207018 0
0.884880 0.205796 0
0.845953 0.198884 0
0.809918 0.181858 0
0.782911 0.150693 0
0.768038 0.104981 0
0.764598 0.048761 0
0.769501 -0.011210 0
0.778863 -0.068231 0
0.789658 -0.117867 0
0.800251 -0.157887 0
0.810252 -0.186978 0
0.820270 -0.203943 0
0.831532 -0.207495 0
0.845294 -0.196635 0
0.862243 -0.171413 0
0.882179 -0.133543 0
0.904124 -0.086438 0
0.926630 -0.034719 0
0.947651 0.015994 0
0.964822 0.060815 0
0.976832 0.097238 0
0.982881 0.124517 0
0.982520 0.143091 0
0.975661 0.154137 0
0.962740 0.158986 0
0.944959 0.158445 0
0.924373 0.152336 0
0.903621 0.139628 0
0.885289 0.119248 0
0.871215 0.091107 0
0.862142 0.056649 0
0.857860 0.018615 0
0.857585 -0.019657 0
0.860218 -0.055042 0
0.864689 -0.085164 0
0.870179 -0.108402 0
0.876165 -0.123661 0
0.882384 -0.130177 0
0.888712 -0.127414 0
0.894981 -0.115207 0
0.900818 -0.092189 0
0.905084 -0.076813 0
1.000000 -0.000019 0
0.996213 -0.013756 0
0.984239 -0.028468 0
0.961889 -0.045667 0
0.924544 -0.067499 0
0.862952 -0.097117 0
0.757356 -0.137930 0
0.564296 -0.209372 0
0.072573 -0.000481 0
-0.535227 0.129801 0
0.000000 -0.000015 0
-0.030138 -0.046271 0
-0.051923 -0.085698 0
-0.051637 -0.038450 0
-0.049727 0.057600 0
-0.059993 0.144931 0
-0.083033 0.195281 0
-0.106637 0.202056 0
-0.114889 0.158913 0
-0.093351 0.067312 0
-0.044190 -0.048619 0
0.011757 -0.152112 0
0.067153 -0.225025 0
0.124631 -0.261328 0
0.190585 -0.254855 0
0.269648 -0.206732 0
0.361595 -0.127555 0
0.455320 -0.036206 0
0.532123 0.045648 0
0.586157 0.111538 0
0.619746 0.166544 0
0.633512 0.212346 0
0.627734 0.249884 0
0.603872 0.279598 0
0.566546 0.300015 0
0.525021 0.306182 0
0.491917 0.290523 0
0.478153 0.247353 0
0.487407 0.177937 0
0.515037 0.091076 0
0.551359 0.000195 0
0.584891 -0.082700 0
0.610686 -0.152941 0
0.627469 -0.210411 0
0.636368 -0.254605 0
0.640870 -0.283531 0
0.646410 -0.293508 0
0.658839 -0.280431 0
0.682024 -0.242486 0
0.716103 -0.182523 0
0.757767 -0.108025 0
0.801845 -0.029331 0
0.840840 0.042533 0
0.870486 0.101646 0
0.889583 0.147918 0
0.897637 0.182670 0
0.894519 0.207887 0
0.880728 0.225560 0
0.858112 0.236568 0
0.830576 0.239481 0
0.803850 0.230509 0
0.783721 0.205555 0