# vtk DataFile Version 2.0
generated by CFD-lab course output (written by Tobias Neckel) 
ASCII

DATASET STRUCTURED_GRID
DIMENSIONS  101 21 1 
POINTS 2121 float

0.000000 0.000000 0
0.100000 0.000000 0
0.200000 0.000000 0
0.300000 0.000000 0
0.400000 0.000000 0
0.500000 0.000000 0
0.600000 0.000000 0
0.700000 0.000000 0
0.800000 0.000000 0
0.900000 0.000000 0
1.000000 0.000000 0
1.100000 0.000000 0
1.200000 0.000000 0
1.300000 0.000000 0
1.400000 0.000000 0
1.500000 0.000000 0
1.600000 0.000000 0
1.700000 0.000000 0
1.800000 0.000000 0
1.900000 0.000000 0
2.000000 0.000000 0
2.100000 0.000000 0
2.200000 0.000000 0
2.300000 0.000000 0
2.400000 0.000000 0
2.500000 0.000000 0
2.600000 0.000000 0
2.700000 0.000000 0
2.800000 0.000000 0
2.900000 0.000000 0
3.000000 0.000000 0
3.100000 0.000000 0
3.200000 0.000000 0
3.300000 0.000000 0
3.400000 0.000000 0
3.500000 0.000000 0
3.600000 0.000000 0
3.700000 0.000000 0
3.800000 0.000000 0
3.900000 0.000000 0
4.000000 0.000000 0
4.100000 0.000000 0
4.200000 0.000000 0
4.300000 0.000000 0
4.400000 0.000000 0
4.500000 0.000000 0
4.600000 0.000000 0
4.700000 0.000000 0
4.800000 0.000000 0
4.900000 0.000000 0
5.000000 0.000000 0
5.100000 0.000000 0
5.200000 0.000000 0
5.300000 0.000000 0
5.400000 0.000000 0
5.500000 0.000000 0
5.600000 0.000000 0
5.700000 0.000000 0
5.800000 0.000000 0
5.900000 0.000000 0
6.000000 0.000000 0
6.100000 0.000000 0
6.200000 0.000000 0
6.300000 0.000000 0
6.400000 0.000000 0
6.500000 0.000000 0
6.600000 0.000000 0
6.700000 0.000000 0
6.800000 0.000000 0
6.900000 0.000000 0
7.000000 0.000000 0
7.100000 0.000000 0
7.200000 0.000000 0
7.300000 0.000000 0
7.400000 0.000000 0
7.500000 0.000000 0
7.600000 0.000000 0
7.700000 0.000000 0
7.800000 0.000000 0
7.900000 0.000000 0
8.000000 0.000000 0
8.100000 0.000000 0
8.200000 0.000000 0
8.300000 0.000000 0
8.400000 0.000000 0
8.500000 0.000000 0
8.600000 0.000000 0
8.700000 0.000000 0
8.800000 0.000000 0
8.900000 0.000000 0
9.000000 0.000000 0
9.100000 0.000000 0
9.200000 0.000000 0
9.300000 0.000000 0
9.400000 0.000000 0
9.500000 0.000000 0
9.600000 0.000000 0
9.700000 0.000000 0
9.800000 0.000000 0
9.900000 0.000000 0
10.000000 0.000000 0
0.000000 0.100000 0
0.100000 0.100000 0
0.200000 0.100000 0
0.300000 0.100000 0
0.400000 0.100000 0
0.500000 0.100000 0
0.600000 0.100000 0
0.700000 0.100000 0
0.800000 0.100000 0
0.900000 0.100000 0
1.000000 0.100000 0
1.100000 0.100000 0
1.200000 0.100000 0
1.300000 0.100000 0
1.400000 0.100000 0
1.500000 0.100000 0
1.600000 0.100000 0
1.700000 0.100000 0
1.800000 0.100000 0
1.900000 0.100000 0
2.000000 0.100000 0
2.100000 0.100000 0
2.200000 0.100000 0
2.300000 0.100000 0
2.400000 0.100000 0
2.500000 0.100000 0
2.600000 0.100000 0
2.700000 0.100000 0
2.800000 0.100000 0
2.900000 0.100000 0
3.000000 0.100000 0
3.100000 0.100000 0
3.200000 0.100000 0
3.300000 0.100000 0
3.400000 0.100000 0
3.500000 0.100000 0
3.600000 0.100000 0
3.700000 0.100000 0
3.800000 0.100000 0
3.900000 0.100000 0
4.000000 0.100000 0
4.100000 0.100000 0
4.200000 0.100000 0
4.300000 0.100000 0
4.400000 0.100000 0
4.500000 0.100000 0
4.600000 0.100000 0
4.700000 0.100000 0
4.800000 0.100000 0
4.900000 0.100000 0
5.000000 0.100000 0
5.100000 0.100000 0
5.200000 0.100000 0
5.300000 0.100000 0
5.400000 0.100000 0
5.500000 0.100000 0
5.600000 0.100000 0
5.700000 0.100000 0
5.800000 0.100000 0
5.900000 0.100000 0
6.000000 0.100000 0
6.100000 0.100000 0
6.200000 0.100000 0
6.300000 0.100000 0
6.400000 0.100000 0
6.500000 0.100000 0
6.600000 0.100000 0
6.700000 0.100000 0
6.800000 0.100000 0
6.900000 0.100000 0
7.000000 0.100000 0
7.100000 0.100000 0
7.200000 0.100000 0
7.300000 0.100000 0
7.400000 0.100000 0
7.500000 0.100000 0
7.600000 0.100000 0
7.700000 0.100000 0
7.800000 0.100000 0
7.900000 0.100000 0
8.000000 0.100000 0
8.100000 0.100000 0
8.200000 0.100000 0
8.300000 0.100000 0
8.400000 0.100000 0
8.500000 0.100000 0
8.600000 0.100000 0
8.700000 0.100000 0
8.800000 0.100000 0
8.900000 0.100000 0
9.000000 0.100000 0
9.100000 0.100000 0
9.200000 0.100000 0
9.300000 0.100000 0
9.400000 0.100000 0
9.500000 0.100000 0
9.600000 0.100000 0
9.700000 0.100000 0
9.800000 0.100000 0
9.900000 0.100000 0
10.000000 0.100000 0
0.000000 0.200000 0
0.100000 0.200000 0
0.200000 0.200000 0
0.300000 0.200000 0
0.400000 0.200000 0
0.500000 0.200000 0
0.600000 0.200000 0
0.700000 0.200000 0
0.800000 0.200000 0
0.900000 0.200000 0
1.000000 0.200000 0
1.100000 0.200000 0
1.200000 0.200000 0
1.300000 0.200000 0
1.400000 0.200000 0
1.500000 0.200000 0
1.600000 0.200000 0
1.700000 0.200000 0
1.800000 0.200000 0
1.900000 0.200000 0
2.000000 0.200000 0
2.100000 0.200000 0
2.200000 0.200000 0
2.300000 0.200000 0
2.400000 0.200000 0
2.500000 0.200000 0
2.600000 0.200000 0
2.700000 0.200000 0
2.800000 0.200000 0
2.900000 0.200000 0
3.000000 0.200000 0
3.100000 0.200000 0
3.200000 0.200000 0
3.300000 0.200000 0
3.400000 0.200000 0
3.500000 0.200000 0
3.600000 0.200000 0
3.700000 0.200000 0
3.800000 0.200000 0
3.900000 0.200000 0
4.000000 0.200000 0
4.100000 0.200000 0
4.200000 0.200000 0
4.300000 0.200000 0
4.400000 0.200000 0
4.500000 0.200000 0
4.600000 0.200000 0
4.700000 0.200000 0
4.800000 0.200000 0
4.900000 0.200000 0
5.000000 0.200000 0
5.100000 0.200000 0
5.200000 0.200000 0
5.300000 0.200000 0
5.400000 0.200000 0
5.500000 0.200000 0
5.600000 0.200000 0
5.700000 0.200000 0
5.800000 0.200000 0
5.900000 0.200000 0
6.000000 0.200000 0
6.100000 0.200000 0
6.200000 0.200000 0
6.300000 0.200000 0
6.400000 0.200000 0
6.500000 0.200000 0
6.600000 0.200000 0
6.700000 0.200000 0
6.800000 0.200000 0
6.900000 0.200000 0
7.000000 0.200000 0
7.100000 0.200000 0
7.200000 0.200000 0
7.300000 0.200000 0
7.400000 0.200000 0
7.500000 0.200000 0
7.600000 0.200000 0
7.700000 0.200000 0
7.800000 0.200000 0
7.900000 0.200000 0
8.000000 0.200000 0
8.100000 0.200000 0
8.200000 0.200000 0
8.300000 0.200000 0
8.400000 0.200000 0
8.500000 0.200000 0
8.600000 0.200000 0
8.700000 0.200000 0
8.800000 0.200000 0
8.900000 0.200000 0
9.000000 0.200000 0
9.100000 0.200000 0
9.200000 0.200000 0
9.300000 0.200000 0
9.400000 0.200000 0
9.500000 0.200000 0
9.600000 0.200000 0
9.700000 0.200000 0
9.800000 0.200000 0
9.900000 0.200000 0
10.000000 0.200000 0
0.000000 0.300000 0
0.100000 0.300000 0
0.200000 0.300000 0
0.300000 0.300000 0
0.400000 0.300000 0
0.500000 0.300000 0
0.600000 0.300000 0
0.700000 0.300000 0
0.800000 0.300000 0
0.900000 0.300000 0
1.000000 0.300000 0
1.100000 0.300000 0
1.200000 0.300000 0
1.300000 0.300000 0
1.400000 0.300000 0
1.500000 0.300000 0
1.600000 0.300000 0
1.700000 0.300000 0
1.800000 0.300000 0
1.900000 0.300000 0
2.000000 0.300000 0
2.100000 0.300000 0
2.200000 0.300000 0
2.300000 0.300000 0
2.400000 0.300000 0
2.500000 0.300000 0
2.600000 0.300000 0
2.700000 0.300000 0
2.800000 0.300000 0
2.900000 0.300000 0
3.000000 0.300000 0
3.100000 0.300000 0
3.200000 0.300000 0
3.300000 0.300000 0
3.400000 0.300000 0
3.500000 0.300000 0
3.600000 0.300000 0
3.700000 0.300000 0
3.800000 0.300000 0
3.900000 0.300000 0
4.000000 0.300000 0
4.100000 0.300000 0
4.200000 0.300000 0
4.300000 0.300000 0
4.400000 0.300000 0
4.500000 0.300000 0
4.600000 0.300000 0
4.700000 0.300000 0
4.800000 0.300000 0
4.900000 0.300000 0
5.000000 0.300000 0
5.100000 0.300000 0
5.200000 0.300000 0
5.300000 0.300000 0
5.400000 0.300000 0
5.500000 0.300000 0
5.600000 0.300000 0
5.700000 0.300000 0
5.800000 0.300000 0
5.900000 0.300000 0
6.000000 0.300000 0
6.100000 0.300000 0
6.200000 0.300000 0
6.300000 0.300000 0
6.400000 0.300000 0
6.500000 0.300000 0
6.600000 0.300000 0
6.700000 0.300000 0
6.800000 0.300000 0
6.900000 0.300000 0
7.000000 0.300000 0
7.100000 0.300000 0
7.200000 0.300000 0
7.300000 0.300000 0
7.400000 0.300000 0
7.500000 0.300000 0
7.600000 0.300000 0
7.700000 0.300000 0
7.800000 0.300000 0
7.900000 0.300000 0
8.000000 0.300000 0
8.100000 0.300000 0
8.200000 0.300000 0
8.300000 0.300000 0
8.400000 0.300000 0
8.500000 0.300000 0
8.600000 0.300000 0
8.700000 0.300000 0
8.800000 0.300000 0
8.900000 0.300000 0
9.000000 0.300000 0
9.100000 0.300000 0
9.200000 0.300000 0
9.300000 0.300000 0
9.400000 0.300000 0
9.500000 0.300000 0
9.600000 0.300000 0
9.700000 0.300000 0
9.800000 0.300000 0
9.900000 0.300000 0
10.000000 0.300000 0
0.000000 0.400000 0
0.100000 0.400000 0
0.200000 0.400000 0
0.300000 0.400000 0
0.400000 0.400000 0
0.500000 0.400000 0
0.600000 0.400000 0
0.700000 0.400000 0
0.800000 0.400000 0
0.900000 0.400000 0
1.000000 0.400000 0
1.100000 0.400000 0
1.200000 0.400000 0
1.300000 0.400000 0
1.400000 0.400000 0
1.500000 0.400000 0
1.600000 0.400000 0
1.700000 0.400000 0
1.800000 0.400000 0
1.900000 0.400000 0
2.000000 0.400000 0
2.100000 0.400000 0
2.200000 0.400000 0
2.300000 0.400000 0
2.400000 0.400000 0
2.500000 0.400000 0
2.600000 0.400000 0
2.700000 0.400000 0
2.800000 0.400000 0
2.900000 0.400000 0
3.000000 0.400000 0
3.100000 0.400000 0
3.200000 0.400000 0
3.300000 0.400000 0
3.400000 0.400000 0
3.500000 0.400000 0
3.600000 0.400000 0
3.700000 0.400000 0
3.800000 0.400000 0
3.900000 0.400000 0
4.000000 0.400000 0
4.100000 0.400000 0
4.200000 0.400000 0
4.300000 0.400000 0
4.400000 0.400000 0
4.500000 0.400000 0
4.600000 0.400000 0
4.700000 0.400000 0
4.800000 0.400000 0
4.900000 0.400000 0
5.000000 0.400000 0
5.100000 0.400000 0
5.200000 0.400000 0
5.300000 0.400000 0
5.400000 0.400000 0
5.500000 0.400000 0
5.600000 0.400000 0
5.700000 0.400000 0
5.800000 0.400000 0
5.900000 0.400000 0
6.000000 0.400000 0
6.100000 0.400000 0
6.200000 0.400000 0
6.300000 0.400000 0
6.400000 0.400000 0
6.500000 0.400000 0
6.600000 0.400000 0
6.700000 0.400000 0
6.800000 0.400000 0
6.900000 0.400000 0
7.000000 0.400000 0
7.100000 0.400000 0
7.200000 0.400000 0
7.300000 0.400000 0
7.400000 0.400000 0
7.500000 0.400000 0
7.600000 0.400000 0
7.700000 0.400000 0
7.800000 0.400000 0
7.900000 0.400000 0
8.000000 0.400000 0
8.100000 0.400000 0
8.200000 0.400000 0
8.300000 0.400000 0
8.400000 0.400000 0
8.500000 0.400000 0
8.600000 0.400000 0
[...]
POINT_DATA 2121 

VECTORS velocity float
0.500000 0.000000 0
-0.000003 0.000000 0
-0.000011 0.000000 0
-0.000023 0.000000 0
-0.000037 0.000000 0
-0.000049 0.000000 0
-0.000056 0.000000 0
-0.000052 0.000000 0
-0.000033 0.000000 0
0.000009 0.000000 0
0.000080 0.000000 0
0.000181 0.000000 0
0.000312 0.000000 0
0.000464 0.000000 0
0.000620 0.000000 0
0.000759 0.000000 0
0.000853 0.000000 0
0.000878 0.000000 0
0.000812 0.000000 0
0.000639 0.000000 0
0.000352 0.000000 0
-0.000046 0.000000 0
-0.000542 0.000000 0
-0.001110 0.000000 0
-0.001712 0.000000 0
-0.002286 0.000000 0
-0.002727 0.000000 0
-0.002920 0.000000 0
-0.002776 0.000000 0
-0.002280 0.000000 0
-0.001508 0.000000 0
-0.000585 0.000000 0
0.000388 0.000000 0
0.001316 0.000000 0
0.002131 0.000000 0
0.002790 0.000000 0
0.003272 0.000000 0
0.003568 0.000000 0
0.003677 0.000000 0
0.003598 0.000000 0
0.003331 0.000000 0
0.002876 0.000000 0
0.002228 0.000000 0
0.001375 0.000000 0
0.000304 0.000000 0
-0.000964 0.000000 0
-0.002300 0.000000 0
-0.003606 0.000000 0
-0.004776 0.000000 0
-0.005682 0.000000 0
-0.006181 0.000000 0
-0.006144 0.000000 0
-0.005486 0.000000 0
-0.004230 0.000000 0
-0.002547 0.000000 0
-0.000735 0.000000 0
0.000996 0.000000 0
0.002557 0.000000 0
0.003861 0.000000 0
0.004850 0.000000 0
0.005493 0.000000 0
0.005784 0.000000 0
0.005738 0.000000 0
0.005376 0.000000 0
0.004721 0.000000 0
0.003800 0.000000 0
0.002647 0.000000 0
0.001323 0.000000 0
-0.000060 0.000000 0
-0.001284 0.000000 0
-0.002305 0.000000 0
-0.003152 0.000000 0
-0.003859 0.000000 0
-0.004451 0.000000 0
-0.004927 0.000000 0
-0.005253 0.000000 0
-0.005354 0.000000 0
-0.005130 0.000000 0
-0.004485 0.000000 0
-0.003383 0.000000 0
-0.001913 0.000000 0
-0.000274 0.000000 0
0.001393 0.000000 0
0.003006 0.000000 0
0.004456 0.000000 0
0.005624 0.000000 0
0.006394 0.000000 0
0.006664 0.000000 0
0.006372 0.000000 0
0.005530 0.000000 0
0.004253 0.000000 0
0.002746 0.000000 0
0.001254 0.000000 0
0.000018 0.000000 0
-0.000798 0.000000 0
-0.001278 0.000000 0
-0.001537 0.000000 0
-0.001670 0.000000 0
-0.001750 0.000000 0
-0.001832 0.000000 0
-0.002039 0.000000 0
1.000000 0.000003 0
1.002639 -0.004805 0
1.010862 -0.010444 0
1.025100 -0.016599 0
1.045812 -0.023059 0
1.073289 -0.029433 0
1.107342 -0.035043 0
1.146881 -0.038946 0
1.189612 -0.040165 0
1.231899 -0.038293 0
1.270341 -0.033802 0
1.302716 -0.027588 0
1.327913 -0.020484 0
1.345534 -0.013098 0
1.355611 -0.005875 0
1.358520 0.000805 0
1.354974 0.006626 0
1.345986 0.011317 0
1.332844 0.014653 0
1.317049 0.016473 0
1.300224 0.016715 0
1.284006 0.015416 0
1.269934 0.012719 0
1.259350 0.008860 0
1.253313 0.004172 0
1.252499 -0.000842 0
1.256977 -0.005402 0
1.265925 -0.008580 0
1.277483 -0.009593 0
1.289005 -0.008109 0
1.297699 -0.004413 0
1.301374 0.000795 0
1.298842 0.006739 0
1.289840 0.012725 0
1.274773 0.018202 0
1.254489 0.022799 0
1.230079 0.026305 0
1.202751 0.028612 0
1.173755 0.029678 0
1.144351 0.029486 0
1.115800 0.028031 0
1.089362 0.025300 0
1.066287 0.021260 0
1.047797 0.015834 0
1.035045 0.008945 0
1.029047 0.000784 0
1.030625 -0.007999 0
1.040293 -0.016641 0
1.058057 -0.024437 0
1.083201 -0.030605 0
1.114182 -0.034324 0
1.148657 -0.034856 0
1.183550 -0.031738 0
1.215265 -0.025057 0
1.240155 -0.015688 0
1.255293 -0.005150 0
1.259270 0.005237 0
1.252460 0.014762 0
1.236116 0.022932 0
1.211956 0.029364 0
1.181978 0.033829 0
1.148303 0.036237 0
1.113049 0.036599 0
1.078253 0.034983 0
1.045807 0.031477 0
1.017398 0.026195 0
0.994405 0.019328 0
0.977760 0.011254 0
0.967844 0.002718 0
0.964541 -0.005190 0
0.967385 -0.011823 0
0.975670 -0.017216 0
0.988704 -0.021565 0
1.005876 -0.025038 0
1.026666 -0.027684 0
1.050556 -0.029368 0
1.076854 -0.029747 0
1.104467 -0.028318 0
1.131737 -0.024589 0
1.156439 -0.018374 0
1.175975 -0.010094 0
1.187805 -0.000709 0
1.190156 0.008914 0
1.182747 0.018207 0
1.166232 0.026599 0
1.141881 0.033440 0
1.111564 0.038062 0
1.077664 0.039854 0
1.042919 0.038399 0
1.010125 0.033681 0
0.981729 0.026254 0
0.959395 0.017225 0
0.943756 0.008014 0
0.934473 0.000108 0
0.930609 -0.005513 0
0.930928 -0.008877 0
0.934058 -0.010512 0
0.938779 -0.010798 0
0.944059 -0.009864 0
0.948913 -0.006378 0
0.950774 -0.003871 0
1.000000 0.000006 0
1.002957 -0.010876 0
1.011636 -0.022470 0
1.026425 -0.034958 0
1.048008 -0.048198 0
1.077113 -0.061540 0
1.114107 -0.073601 0
1.158306 -0.082280 0
1.207393 -0.085028 0
1.255565 -0.080738 0
1.298128 -0.070827 0
1.332948 -0.057582 0
1.359501 -0.042828 0
1.377839 -0.027707 0
1.388162 -0.012994 0
1.390885 0.000628 0
1.386765 0.012525 0
1.376852 0.022122 0
1.362516 0.028930 0
1.345381 0.032613 0
1.327214 0.033035 0
1.309791 0.030282 0
1.294772 0.024648 0
1.283599 0.016613 0
1.277464 0.006843 0
1.277311 -0.003672 0
1.283582 -0.013435 0
1.295671 -0.020515 0
1.311505 -0.023089 0
1.327742 -0.020225 0
1.340667 -0.012378 0
1.347427 -0.001152 0
1.346839 0.011524 0
1.338951 0.024059 0
1.324497 0.035342 0
1.304586 0.044685 0
1.280473 0.051728 0
1.253434 0.056315 0
1.224717 0.058391 0
1.195538 0.057946 0
1.167086 0.054980 0
1.140524 0.049504 0
1.116963 0.041556 0
1.097411 0.031234 0
1.082699 0.018742 0
1.073477 0.004412 0
1.070429 -0.011254 0
1.074323 -0.027441 0
1.085590 -0.042916 0
1.104107 -0.056133 0
1.129212 -0.065464 0
1.159753 -0.069376 0
1.193908 -0.066617 0
1.228913 -0.056614 0
1.261009 -0.040037 0
1.285883 -0.019123 0
1.299848 0.002824 0
1.301725 0.023145 0
1.292815 0.040495 0
1.275006 0.054128 0
1.250439 0.063643 0
1.221325 0.068919 0
1.189813 0.070040 0
1.157881 0.067233 0
1.127254 0.060846 0
1.099302 0.051393 0
1.074963 0.039630 0
1.054700 0.026553 0
1.038584 0.013211 0
1.026606 0.000453 0
1.018940 -0.011135 0
1.015558 -0.021325 0
1.016320 -0.030211 0
1.021159 -0.037966 0
1.030187 -0.044683 0
1.043641 -0.050191 0
1.061643 -0.053913 0
1.083871 -0.054885 0
1.109352 -0.051973 0
1.136382 -0.044238 0
1.162545 -0.031365 0
1.184814 -0.014180 0
1.200068 0.005059 0
1.206324 0.023926 0
1.203670 0.040868 0
1.193073 0.054669 0
1.176024 0.064218 0
1.154343 0.068647 0
1.129952 0.067540 0
1.104629 0.061191 0
1.079824 0.050731 0
1.056578 0.037973 0
1.035560 0.024923 0
1.017191 0.013148 0
1.001856 0.003545 0
0.989715 -0.003450 0
0.980468 -0.007852 0
0.973595 -0.010001 0
0.968618 -0.010134 0
0.965231 -0.006715 0
0.963482 -0.004213 0
1.000000 0.000010 0
1.002553 -0.016450 0
1.010402 -0.033916 0
1.024221 -0.052975 0
1.045195 -0.073750 0
1.074905 -0.095537 0
1.114951 -0.116240 0
1.165805 -0.132236 0
1.226257 -0.137427 0
1.283620 -0.129031 0
1.330778 -0.111189 0
1.366913 -0.088965 0
1.393264 -0.065379 0
1.410854 -0.041762 0
1.419988 -0.018925 0
1.420919 0.002198 0
1.414319 0.020656 0
1.401248 0.035564 0
1.383222 0.046120 0
1.362095 0.051772 0
1.339897 0.052301 0
1.318669 0.047854 0
1.300285 0.038908 0
1.286321 0.026166 0
1.278079 0.010457 0
1.276843 -0.006964 0
1.283804 -0.023767 0
1.298901 -0.036507 0
1.319938 -0.041668 0
1.342655 -0.037275 0
1.361748 -0.024101 0
1.372788 -0.005381 0
1.374150 0.015211 0
1.366564 0.035064 0
1.351447 0.052563 0
1.330436 0.066819 0
1.305092 0.077452 0
1.276808 0.084365 0
1.246821 0.087571 0
1.216261 0.087114 0
1.186193 0.083041 0
1.157643 0.075419 0
1.131586 0.064369 0
1.108902 0.050095 0
1.090317 0.032875 0
1.076338 0.013051 0
1.067252 -0.008848 0
1.063324 -0.031806 0
1.064895 -0.054224 0
1.072328 -0.074231 0
1.086174 -0.089974 0
1.107107 -0.099555 0
1.135205 -0.100903 0
1.169171 -0.092163 0
1.205965 -0.072661 0
1.240938 -0.043992 0
1.268583 -0.010608 0
1.284251 0.021791 0
1.287360 0.049647 0
1.279795 0.071737 0
1.263755 0.087506 0
1.241507 0.096859 0
1.215206 0.100039 0
1.186786 0.097539 0
1.157865 0.090053 0
1.129705 0.078482 0
1.103222 0.063928 0
1.079046 0.047630 0
1.057576 0.030810 0
1.038935 0.014452 0
1.022986 -0.000777 0
1.009563 -0.014597 0
0.998761 -0.027167 0
0.991299 -0.038906 0
0.988351 -0.050168 0
0.991202 -0.060825 0
1.000699 -0.069977 0
1.016839 -0.076028 0
1.038733 -0.077100 0
1.064817 -0.071568 0
1.093077 -0.058527 0
1.121161 -0.038232 0
1.146312 -0.012597 0
1.165373 0.014604 0
1.176487 0.039849 0
1.179783 0.061084 0
1.176001 0.076790 0
1.166200 0.085924 0
1.151544 0.088111 0
1.133152 0.083806 0
1.112075 0.074303 0
1.089350 0.061486 0
1.066049 0.047399 0
1.043175 0.033809 0
1.021435 0.021960 0
1.001231 0.012508 0
0.982886 0.005605 0
0.966717 0.001049 0
0.953177 -0.001504 0
0.942916 -0.001245 0
0.938051 -0.001006 0
1.000000 0.000014 0
1.002017 -0.021286 0
1.008383 -0.044141 0
1.020056 -0.069754 0
1.038838 -0.098887 0
1.067551 -0.131300 0
1.110027 -0.164504 0
1.169659 -0.193589 0
1.251023 -0.202846 0
1.319951 -0.185264 0
1.368170 -0.154124 0
1.400912 -0.120071 0
1.423565 -0.086771 0
1.438729 -0.054433 0
1.446282 -0.023063 0
1.445309 0.006294 0
1.435810 0.032194 0
1.418733 0.053215 0
1.395784 0.068080 0
1.369148 0.075935 0
1.341249 0.076457 0
1.314534 0.069890 0
1.291193 0.056993 0
1.272894 0.038815 0
1.260738 0.016317 0
1.255642 -0.009400 0
1.259537 -0.035496 0
1.273807 -0.056652 0
1.297299 -0.066847 0
1.326303 -0.062040 0
1.354685 -0.042516 0
1.375058 -0.013559 0
1.382302 0.017744 0
1.377310 0.046758 0
1.362812 0.071466 0
1.341396 0.091037 0
1.315151 0.105353 0
1.285693 0.114582 0
1.254294 0.118935 0
1.222036 0.118570 0
1.189912 0.113594 0
1.158889 0.104108 0
1.129914 0.090294 0
1.103828 0.072499 0
1.081132 0.051303 0
1.061639 0.027474 0
1.044355 0.001756 0
1.028155 -0.025088 0
1.013423 -0.051923 0
1.002623 -0.077415 0
0.999098 -0.100246 0
1.006043 -0.118410 0
1.024897 -0.128686 0
1.054841 -0.127378 0
1.093153 -0.111807 0
1.135624 -0.081745 0
1.176771 -0.040493 0
1.210153 0.004364 0
1.230592 0.044947 0
1.238395 0.077729 0
1.235514 0.101928 0
1.224115 0.117464 0
1.206329 0.124756 0
1.184110 0.124570 0
1.159150 0.117923 0
1.132840 0.106033 0
1.106271 0.090286 0
1.080212 0.072196 0
1.055035 0.053320 0
1.030675 0.035040 0
1.006803 0.018235 0
0.983422 0.002899 0
0.961437 -0.011948 0
0.942849 -0.027558 0
0.930395 -0.044587 0
0.926217 -0.062540 0
0.930988 -0.079551 0
0.944026 -0.092920 0
0.963871 -0.099953 0
0.988778 -0.098584 0
1.016955 -0.087711 0
1.046622 -0.067417 0
1.075896 -0.039156 0
1.102448 -0.006251 0
1.123269 0.026455 0
1.137025 0.055151 0
1.143675 0.077798 0
1.143583 0.093101 0
1.137335 0.100585 0
1.125641 0.100656 0
1.109321 0.094529 0
1.089317 0.083995 0
1.066644 0.071094 0
1.042272 0.057758 0
1.017033 0.045485 0
0.991699 0.035094 0
0.967184 0.026657 0
0.944706 0.019703 0
0.925726 0.013662 0
0.911667 0.008406 0
0.905050 0.004750 0
1.000000 0.000018 0
1.001180 -0.024840 0
1.005050 -0.051959 0
1.012670 -0.083434 0
1.026256 -0.121248 0
1.049902 -0.166729 0
1.090679 -0.218352 0
1.158289 -0.273235 0
1.275723 -0.287723 0
1.349057 -0.246182 0
1.382932 -0.192153 0
1.399784 -0.144363 0
1.411037 -0.103199 0
1.420820 -0.064482 0
1.427492 -0.025508 0
1.426319 0.012667 0
1.415358 0.047229 0
1.395256 0.075588 0
1.367885 0.095702 0
1.335719 0.106304 0
1.301580 0.106911 0
1.268405 0.097906 0
1.238764 0.080544 0
1.214241 0.056617 0
1.195205 0.027706 0
1.181183 -0.005767 0
1.172608 -0.041936 0
1.174205 -0.074273 0
1.188659 -0.094168 0
1.216235 -0.094665 0
1.253106 -0.072860 0
1.290482 -0.033002 0
1.316736 0.012955 0
1.325588 0.054550 0
1.321139 0.088474 0
1.307291 0.114476 0
1.286815 0.133151 0
1.261605 0.145218 0
1.233049 0.151225 0
1.202279 0.151494 0
1.170329 0.146185 0
1.138208 0.135414 0
1.106895 0.119427 0
1.077151 0.098873 0
1.048966 0.075061 0
1.020910 0.049825 0
0.990491 0.024631 0
0.956393 -0.000877 0
0.921067 -0.028696 0
0.891307 -0.059910 0
0.874839 -0.093397 0
0.874728 -0.125357 0
0.890098 -0.149705 0
0.918421 -0.160424 0
0.956702 -0.153448 0
1.001661 -0.127614 0
1.049501 -0.085142 0
1.095454 -0.032033 0
1.132974 0.021401 0
1.157732 0.066810 0
1.170509 0.101782 0
1.172878 0.126040 0
1.166632 0.140040 0
1.153560 0.144714 0
1.135312 0.141320 0
1.113298 0.131357 0
1.088579 0.116553 0
1.061726 0.098864 0
1.032786 0.080344 0
1.001600 0.062681 0
0.968598 0.046473 0
0.935622 0.030766 0
0.905899 0.013404 0
0.882919 -0.007866 0
0.869190 -0.033537 0
0.865555 -0.061420 0
0.871126 -0.087789 0
0.884225 -0.108913 0
0.903150 -0.121854 0
0.926432 -0.124654 0
0.952797 -0.116373 0
0.981047 -0.097176 0
1.009956 -0.068427 0
1.038128 -0.032772 0
1.063433 0.005268 0
1.083285 0.040674 0
1.096776 0.070229 0
1.103637 0.092260 0
1.103941 0.106048 0
1.098004 0.111816 0
1.086330 0.110622 0
1.069564 0.104157 0
1.048451 0.094438 0
1.023821 0.083416 0
0.996681 0.072527 0
0.968385 0.062351 0
0.940710 0.052592 0
0.915706 0.042501 0
0.895323 0.031530 0
0.881013 0.019425 0
0.874183 0.011305 0
1.000000 0.000021 0
0.999989 -0.026344 0
1.000170 -0.055635 0
1.001296 -0.090964 0
1.005229 -0.136121 0
1.016263 -0.195726 0
1.044081 -0.272895 0
1.108384 -0.378637 0
1.273972 -0.393617 0
1.320539 -0.292477 0
1.306487 -0.204855 0
1.288352 -0.148179 0
1.277261 -0.107810 0
1.277303 -0.070892 0
1.285825 -0.028565 0
1.290719 0.018426 0
1.284056 0.063253 0
1.266386 0.100684 0
1.239454 0.127614 0
1.205538 0.142237 0
1.167436 0.143768 0
1.128445 0.132703 0
1.091441 0.111154 0
1.057031 0.082371 0
1.023367 0.049372 0
0.989313 0.013194 0
0.956776 -0.028522 0
0.933464 -0.072707 0
0.931821 -0.108881 0
0.955150 -0.126491 0
0.999696 -0.116766 0
1.057285 -0.077192 0
1.115584 -0.017367 0
1.159501 0.042352 0
1.183510 0.089759 0
1.192970 0.125357 0
1.191513 0.151035 0
1.181428 0.168344 0
1.164373 0.178257 0
1.141738 0.181286 0
1.114750 0.177661 0
1.084388 0.167538 0
1.051026 0.151347 0
1.013897 0.130425 0
0.971148 0.107541 0
0.921673 0.085946 0
0.868039 0.066270 0
0.817309 0.044333 0
0.777709 0.013159 0
0.754576 -0.031191 0
0.748660 -0.083670 0
0.757092 -0.133674 0
0.776584 -0.172382 0
0.804962 -0.193985 0
0.840893 -0.195052 0
0.883049 -0.174548 0
0.929523 -0.134290 0
0.977602 -0.079113 0
1.023315 -0.017336 0
1.060300 0.040189 0
1.085970 0.086779 0
1.100826 0.121338 0
1.105909 0.144071 0
1.102489 0.155886 0
1.091834 0.158182 0
1.075003 0.152763 0
1.052651 0.141855 0
1.024974 0.127986 0
0.992066 0.113443 0
0.954806 0.099226 0
0.915796 0.084211 0
0.879372 0.065595 0
0.850271 0.040752 0
0.831652 0.009149 0
0.823839 -0.027225 0
0.825109 -0.064479 0
0.833195 -0.098224 0
0.846283 -0.124946 0
0.863216 -0.142163 0
0.883289 -0.148234 0
0.905964 -0.142329 0
0.930637 -0.124580 0
0.956530 -0.096240 0
0.982675 -0.059732 0
1.007840 -0.018706 0
1.029789 0.021803 0
1.046682 0.057441 0
1.057701 0.085931 0
1.062453 0.106212 0
1.060847 0.118262 0
1.053012 0.122962 0
1.039264 0.121866 0
1.020135 0.116831 0
0.996488 0.109521 0
0.969692 0.100914 0
0.941688 0.091058 0
0.914804 0.079329 0
0.891313 0.065082 0
0.872933 0.048348 0
0.860548 0.029538 0
0.854498 0.017381 0
1.000000 0.000025 0
0.998546 -0.025018 0
0.994137 -0.053269 0
0.986648 -0.088497 0
0.976237 -0.136219 0
0.964424 -0.205583 0
0.957558 -0.310476 0
0.977685 -0.503130 0
1.136835 -0.499881 0
1.119407 -0.278700 0
1.010966 -0.159970 0
0.948679 -0.115141 0
0.909857 -0.092152 0
0.898886 -0.073049 0
0.915134 -0.038927 0
0.942066 0.014432 0
0.955875 0.071560 0
0.956157 0.120187 0
0.942957 0.156547 0
0.915839 0.178320 0
0.874711 0.184001 0
0.820349 0.173898 0
0.755617 0.151955 0
0.687061 0.124688 0
0.624617 0.095420 0
0.578631 0.060820 0
0.556470 0.013909 0
0.558084 -0.049322 0
0.580598 -0.115858 0
0.621653 -0.162544 0
0.678940 -0.174998 0
0.749818 -0.148894 0
0.829783 -0.089265 0
0.908636 -0.013380 0
0.970848 0.055001 0
1.012335 0.106468 0
1.037777 0.144690 0
1.049798 0.172355 0
1.050161 0.190911 0
1.040294 0.201113 0
1.021232 0.203531 0
0.993266 0.199134 0
0.955600 0.189915 0
0.906857 0.178748 0
0.847397 0.167281 0
0.782586 0.152931 0
0.723331 0.128993 0
0.681254 0.089449 0
0.662176 0.034033 0
0.663232 -0.030865 0
0.675579 -0.095917 0
0.692979 -0.153284 0
0.713299 -0.197578 0
0.736946 -0.224737 0
0.765247 -0.231539 0
0.799152 -0.216248 0
0.838410 -0.179698 0
0.881445 -0.125829 0
0.925690 -0.061301 0
0.966993 0.004151 0
0.999916 0.061253 0
1.023150 0.106097 0
1.036717 0.138373 0
1.041091 0.158785 0
1.036862 0.168802 0
1.024490 0.170537 0
1.004222 0.166579 0
0.976402 0.159446 0
0.942245 0.150508 0
0.904672 0.138949 0
0.868301 0.121905 0
0.838089 0.096288 0
0.817424 0.061121 0
0.807094 0.018564 0
0.805676 -0.026997 0
0.810487 -0.070779 0
0.819217 -0.108967 0
0.830492 -0.138937 0
0.843762 -0.158863 0
0.858997 -0.167406 0
0.876336 -0.163725 0
0.895771 -0.147746 0
0.916955 -0.120469 0
0.939190 -0.084088 0
0.961505 -0.041852 0
0.982508 0.001827 0
1.000038 0.042311 0
1.012824 0.076482 0
1.020074 0.102895 0
1.021338 0.121250 0
1.016434 0.132197 0
1.005470 0.137026 0
0.988947 0.137206 0
0.967922 0.133850 0
0.944086 0.127319 0
0.919627 0.117230 0
0.896824 0.102958 0
0.877545 0.084363 0
0.862903 0.062285 0
0.853214 0.037851 0
0.848418 0.022415 0
1.000000 0.000027 0
0.997147 -0.020489 0
0.988207 -0.043740 0
0.971832 -0.073067 0
0.945370 -0.113901 0
0.904062 -0.177049 0
0.839234 -0.286159 0
0.735789 -0.557917 0
0.550820 -0.535342 0
-0.000356 -0.166611 0
0.394195 -0.034131 0
0.318228 -0.047073 0
0.310803 -0.058020 0
0.341261 -0.076171 0
0.384251 -0.071747 0
0.438270 -0.022318 0
0.486054 0.049159 0
0.514875 0.113599 0
0.523763 0.167930 0
0.509336 0.210480 0
0.470098 0.239254 0
0.408817 0.251793 0
0.336063 0.244439 0
0.268706 0.213367 0
0.224532 0.157798 0
0.214846 0.081337 0
0.239428 -0.007979 0
0.284851 -0.096839 0
0.335517 -0.172453 0
0.387563 -0.224836 0
0.444011 -0.244935 0
0.509084 -0.228039 0
0.584782 -0.176188 0
0.669120 -0.098718 0
0.751998 -0.013943 0
0.818631 0.058425 0
0.865951 0.113568 0
0.896705 0.155957 0
0.912220 0.187758 0
0.913321 0.210212 0
0.900326 0.224686 0
0.873074 0.233168 0
0.831735 0.237753 0
0.778920 0.238624 0
0.721923 0.231808 0
0.672015 0.210008 0
0.639431 0.167598 0
0.628015 0.105484 0
0.634393 0.031177 0
0.650825 -0.044598 0
0.669546 -0.113421 0
0.686617 -0.171398 0
0.701341 -0.216353 0
0.715262 -0.245937 0
0.731206 -0.257262 0
0.752059 -0.247715 0
0.779425 -0.216586 0
0.812905 -0.166397 0
0.850405 -0.102888 0
0.888882 -0.034041 0
0.923443 0.030618 0
0.950433 0.084533 0
0.968770 0.126126 0
0.978063 0.155737 0
0.978200 0.174779 0
0.969187 0.185400 0
0.951342 0.189939 0
0.925860 0.189960 0
0.895483 0.185170 0
0.864537 0.173167 0
0.837842 0.150792 0
0.818943 0.116468 0
0.808952 0.071743 0
0.806801 0.020894 0
0.810351 -0.030622 0
0.817180 -0.078023 0
0.825460 -0.118233 0
0.834179 -0.149495 0
0.843104 -0.170671 0
0.852624 -0.180812 0
0.863464 -0.179108 0
0.876282 -0.165203 0
0.891313 -0.139665 0
0.908228 -0.104288 0
0.926221 -0.062031 0
0.944170 -0.016737 0
0.960311 0.027118 0
0.973004 0.065888 0
0.981176 0.097690 0
0.984122 0.121893 0
0.981479 0.138822 0
0.973293 0.149344 0
0.960146 0.154369 0
0.943250 0.154372 0
0.924375 0.149198 0
0.905541 0.138310 0
0.888560 0.121401 0
0.874662 0.098994 0
0.864373 0.072669 0
0.857653 0.044013 0
0.854372 0.026118 0
1.000000 0.000028 0
0.996190 -0.013233 0
0.984147 -0.027956 0
0.961668 -0.045663 0
0.924130 -0.068452 0
0.862268 -0.099450 0
0.756314 -0.142206 0
0.562964 -0.214720 0
0.073724 0.000346 0
-0.529564 0.131930 0
0.000000 0.000052 0
-0.034115 -0.043067 0
-0.056975 -0.115189 0
-0.027136 -0.146499 0
-0.012483 -0.135939 0
0.014724 -0.087373 0
0.065914 -0.005048 0
0.114997 0.082475 0
0.144641 0.162083 0
0.149352 0.231982 0
0.130739 0.284518 0
0.099635 0.307928 0
0.075488 0.292063 0
0.071731 0.236216 0
0.093847 0.149276 0
0.138446 0.045920 0
0.190459 -0.056100 0
0.237586 -0.145414 0
0.276714 -0.218574 0
0.309400 -0.271042 0
0.341395 -0.296523 0
0.380185 -0.289669 0
0.431533 -0.249305 0
0.496741 -0.180600 0
0.571957 -0.094514 0
0.645673 -0.007488 0
0.704443 0.066611 0
0.745799 0.126082 0
0.770310 0.174292 0
0.778168 0.213004 0
0.769622 0.243775 0
0.745847 0.267721 0
0.710482 0.284065 0
0.670950 0.288557 0
0.637568 0.274183 0
0.619459 0.235419 0
0.620064 0.172989 0
0.636321 0.094484 0
0.661549 0.011219 0
0.687428 -0.066021 0
0.708963 -0.131712 0
0.724053 -0.185083 0
0.732487 -0.226227 0
0.735878 -0.254606 0
0.737596 -0.268341 0
0.742043 -0.264471 0
0.753098 -0.240548 0
0.772461 -0.196813 0
0.799089 -0.137282 0
0.830009 -0.068891 0
0.861280 -0.000302 0
0.887953 0.060767 0
0.907637 0.110740 0
0.919165 0.149352 0
0.921944 0.177675 0
0.915916 0.197392 0