# vtk DataFile Version 2.0
generated by CFD-lab course output (written by Tobias Neckel) 
ASCII

DATASET STRUCTURED_GRID
DIMENSIONS  101 21 1 
POINTS 2121 float

0.000000 0.000000 0
0.100000 0.000000 0
0.200000 0.000000 0
0.300000 0.000000 0
0.400000 0.000000 0
0.500000 0.000000 0
0.600000 0.000000 0
0.700000 0.000000 0
0.800000 0.000000 0
0.900000 0.000000 0
1.000000 0.000000 0
1.100000 0.000000 0
1.200000 0.000000 0
1.300000 0.000000 0
1.400000 0.000000 0
1.500000 0.000000 0
1.600000 0.000000 0
1.700000 0.000000 0
1.800000 0.000000 0
1.900000 0.000000 0
2.000000 0.000000 0
2.100000 0.000000 0
2.200000 0.000000 0
2.300000 0.000000 0
2.400000 0.000000 0
2.500000 0.000000 0
2.600000 0.000000 0
2.700000 0.000000 0
2.800000 0.000000 0
2.900000 0.000000 0
3.000000 0.000000 0
3.100000 0.000000 0
3.200000 0.000000 0
3.300000 0.000000 0
3.400000 0.000000 0
3.500000 0.000000 0
3.600000 0.000000 0
3.700000 0.000000 0
3.800000 0.000000 0
3.900000 0.000000 0
4.000000 0.000000 0
4.100000 0.000000 0
4.200000 0.000000 0
4.300000 0.000000 0
4.400000 0.000000 0
4.500000 0.000000 0
4.600000 0.000000 0
4.700000 0.000000 0
4.800000 0.000000 0
4.900000 0.000000 0
5.000000 0.000000 0
5.100000 0.000000 0
5.200000 0.000000 0
5.300000 0.000000 0
5.400000 0.000000 0
5.500000 0.000000 0
5.600000 0.000000 0
5.700000 0.000000 0
5.800000 0.000000 0
5.900000 0.000000 0
6.000000 0.000000 0
6.100000 0.000000 0
6.200000 0.000000 0
6.300000 0.000000 0
6.400000 0.000000 0
6.500000 0.000000 0
6.600000 0.000000 0
6.700000 0.000000 0
6.800000 0.000000 0
6.900000 0.000000 0
7.000000 0.000000 0
7.100000 0.000000 0
7.200000 0.000000 0
7.300000 0.000000 0
7.400000 0.000000 0
7.500000 0.000000 0
7.600000 0.000000 0
7.700000 0.000000 0
7.800000 0.000000 0
7.900000 0.000000 0
8.000000 0.000000 0
8.100000 0.000000 0
8.200000 0.000000 0
8.300000 0.000000 0
8.400000 0.000000 0
8.500000 0.000000 0
8.600000 0.000000 0
8.700000 0.000000 0
8.800000 0.000000 0
8.900000 0.000000 0
9.000000 0.000000 0
9.100000 0.000000 0
9.200000 0.000000 0
9.300000 0.000000 0
9.400000 0.000000 0
9.500000 0.000000 0
9.600000 0.000000 0
9.700000 0.000000 0
9.800000 0.000000 0
9.900000 0.000000 0
10.000000 0.000000 0
0.000000 0.100000 0
0.100000 0.100000 0
0.200000 0.100000 0
0.300000 0.100000 0
0.400000 0.100000 0
0.500000 0.100000 0
0.600000 0.100000 0
0.700000 0.100000 0
0.800000 0.100000 0
0.900000 0.100000 0
1.000000 0.100000 0
1.100000 0.100000 0
1.200000 0.100000 0
1.300000 0.100000 0
1.400000 0.100000 0
1.500000 0.100000 0
1.600000 0.100000 0
1.700000 0.100000 0
1.800000 0.100000 0
1.900000 0.100000 0
2.000000 0.100000 0
2.100000 0.100000 0
2.200000 0.100000 0
2.300000 0.100000 0
2.400000 0.100000 0
2.500000 0.100000 0
2.600000 0.100000 0
2.700000 0.100000 0
2.800000 0.100000 0
2.900000 0.100000 0
3.000000 0.100000 0
3.100000 0.100000 0
3.200000 0.100000 0
3.300000 0.100000 0
3.400000 0.100000 0
3.500000 0.100000 0
3.600000 0.100000 0
3.700000 0.100000 0
3.800000 0.100000 0
3.900000 0.100000 0
4.000000 0.100000 0
4.100000 0.100000 0
4.200000 0.100000 0
4.300000 0.100000 0
4.400000 0.100000 0
4.500000 0.100000 0
4.600000 0.100000 0
4.700000 0.100000 0
4.800000 0.100000 0
4.900000 0.100000 0
5.000000 0.100000 0
5.100000 0.100000 0
5.200000 0.100000 0
5.300000 0.100000 0
5.400000 0.100000 0
5.500000 0.100000 0
5.600000 0.100000 0
5.700000 0.100000 0
5.800000 0.100000 0
5.900000 0.100000 0
6.000000 0.100000 0
6.100000 0.100000 0
6.200000 0.100000 0
6.300000 0.100000 0
6.400000 0.100000 0
6.500000 0.100000 0
6.600000 0.100000 0
6.700000 0.100000 0
6.800000 0.100000 0
6.900000 0.100000 0
7.000000 0.100000 0
7.100000 0.100000 0
7.200000 0.100000 0
7.300000 0.100000 0
7.400000 0.100000 0
7.500000 0.100000 0
7.600000 0.100000 0
7.700000 0.100000 0
7.800000 0.100000 0
7.900000 0.100000 0
8.000000 0.100000 0
8.100000 0.100000 0
8.200000 0.100000 0
8.300000 0.100000 0
8.400000 0.100000 0
8.500000 0.100000 0
8.600000 0.100000 0
8.700000 0.100000 0
8.800000 0.100000 0
8.900000 0.100000 0
9.000000 0.100000 0
9.100000 0.100000 0
9.200000 0.100000 0
9.300000 0.100000 0
9.400000 0.100000 0
9.500000 0.100000 0
9.600000 0.100000 0
9.700000 0.100000 0
9.800000 0.100000 0
9.900000 0.100000 0
10.000000 0.100000 0
0.000000 0.200000 0
0.100000 0.200000 0
0.200000 0.200000 0
0.300000 0.200000 0
0.400000 0.200000 0
0.500000 0.200000 0
0.600000 0.200000 0
0.700000 0.200000 0
0.800000 0.200000 0
0.900000 0.200000 0
1.000000 0.200000 0
1.100000 0.200000 0
1.200000 0.200000 0
1.300000 0.200000 0
1.400000 0.200000 0
1.500000 0.200000 0
1.600000 0.200000 0
1.700000 0.200000 0
1.800000 0.200000 0
1.900000 0.200000 0
2.000000 0.200000 0
2.100000 0.200000 0
2.200000 0.200000 0
2.300000 0.200000 0
2.400000 0.200000 0
2.500000 0.200000 0
2.600000 0.200000 0
2.700000 0.200000 0
2.800000 0.200000 0
2.900000 0.200000 0
3.000000 0.200000 0
3.100000 0.200000 0
3.200000 0.200000 0
3.300000 0.200000 0
3.400000 0.200000 0
3.500000 0.200000 0
3.600000 0.200000 0
3.700000 0.200000 0
3.800000 0.200000 0
3.900000 0.200000 0
4.000000 0.200000 0
4.100000 0.200000 0
4.200000 0.200000 0
4.300000 0.200000 0
4.400000 0.200000 0
4.500000 0.200000 0
4.600000 0.200000 0
4.700000 0.200000 0
4.800000 0.200000 0
4.900000 0.200000 0
5.000000 0.200000 0
5.100000 0.200000 0
5.200000 0.200000 0
5.300000 0.200000 0
5.400000 0.200000 0
5.500000 0.200000 0
5.600000 0.200000 0
5.700000 0.200000 0
5.800000 0.200000 0
5.900000 0.200000 0
6.000000 0.200000 0
6.100000 0.200000 0
6.200000 0.200000 0
6.300000 0.200000 0
6.400000 0.200000 0
6.500000 0.200000 0
6.600000 0.200000 0
6.700000 0.200000 0
6.800000 0.200000 0
6.900000 0.200000 0
7.000000 0.200000 0
7.100000 0.200000 0
7.200000 0.200000 0
7.300000 0.200000 0
7.400000 0.200000 0
7.500000 0.200000 0
7.600000 0.200000 0
7.700000 0.200000 0
7.800000 0.200000 0
7.900000 0.200000 0
8.000000 0.200000 0
8.100000 0.200000 0
8.200000 0.200000 0
8.300000 0.200000 0
8.400000 0.200000 0
8.500000 0.200000 0
8.600000 0.200000 0
8.700000 0.200000 0
8.800000 0.200000 0
8.900000 0.200000 0
9.000000 0.200000 0
9.100000 0.200000 0
9.200000 0.200000 0
9.300000 0.200000 0
9.400000 0.200000 0
9.500000 0.200000 0
9.600000 0.200000 0
9.700000 0.200000 0
9.800000 0.200000 0
9.900000 0.200000 0
10.000000 0.200000 0
0.000000 0.300000 0
0.100000 0.300000 0
0.200000 0.300000 0
0.300000 0.300000 0
0.400000 0.300000 0
0.500000 0.300000 0
0.600000 0.300000 0
0.700000 0.300000 0
0.800000 0.300000 0
0.900000 0.300000 0
1.000000 0.300000 0
1.100000 0.300000 0
1.200000 0.300000 0
1.300000 0.300000 0
1.400000 0.300000 0
1.500000 0.300000 0
1.600000 0.300000 0
1.700000 0.300000 0
1.800000 0.300000 0
1.900000 0.300000 0
2.000000 0.300000 0
2.100000 0.300000 0
2.200000 0.300000 0
2.300000 0.300000 0
2.400000 0.300000 0
2.500000 0.300000 0
2.600000 0.300000 0
2.700000 0.300000 0
2.800000 0.300000 0
2.900000 0.300000 0
3.000000 0.300000 0
3.100000 0.300000 0
3.200000 0.300000 0
3.300000 0.300000 0
3.400000 0.300000 0
3.500000 0.300000 0
3.600000 0.300000 0
3.700000 0.300000 0
3.800000 0.300000 0
3.900000 0.300000 0
4.000000 0.300000 0
4.100000 0.300000 0
4.200000 0.300000 0
4.300000 0.300000 0
4.400000 0.300000 0
4.500000 0.300000 0
4.600000 0.300000 0
4.700000 0.300000 0
4.800000 0.300000 0
4.900000 0.300000 0
5.000000 0.300000 0
5.100000 0.300000 0
5.200000 0.300000 0
5.300000 0.300000 0
5.400000 0.300000 0
5.500000 0.300000 0
5.600000 0.300000 0
5.700000 0.300000 0
5.800000 0.300000 0
5.900000 0.300000 0
6.000000 0.300000 0
6.100000 0.300000 0
6.200000 0.300000 0
6.300000 0.300000 0
6.400000 0.300000 0
6.500000 0.300000 0
6.600000 0.300000 0
6.700000 0.300000 0
6.800000 0.300000 0
6.900000 0.300000 0
7.000000 0.300000 0
7.100000 0.300000 0
7.200000 0.300000 0
7.300000 0.300000 0
7.400000 0.300000 0
7.500000 0.300000 0
7.600000 0.300000 0
7.700000 0.300000 0
7.800000 0.300000 0
7.900000 0.300000 0
8.000000 0.300000 0
8.100000 0.300000 0
8.200000 0.300000 0
8.300000 0.300000 0
8.400000 0.300000 0
8.500000 0.300000 0
8.600000 0.300000 0
8.700000 0.300000 0
8.800000 0.300000 0
8.900000 0.300000 0
9.000000 0.300000 0
9.100000 0.300000 0
9.200000 0.300000 0
9.300000 0.300000 0
9.400000 0.300000 0
9.500000 0.300000 0
9.600000 0.300000 0
9.700000 0.300000 0
9.800000 0.300000 0
9.900000 0.300000 0
10.000000 0.300000 0
0.000000 0.400000 0
0.100000 0.400000 0
0.200000 0.400000 0
0.300000 0.400000 0
0.400000 0.400000 0
0.500000 0.400000 0
0.600000 0.400000 0
0.700000 0.400000 0
0.800000 0.400000 0
0.900000 0.400000 0
1.000000 0.400000 0
1.100000 0.400000 0
1.200000 0.400000 0
1.300000 0.400000 0
1.400000 0.400000 0
1.500000 0.400000 0
1.600000 0.400000 0
1.700000 0.400000 0
1.800000 0.400000 0
1.900000 0.400000 0
2.000000 0.400000 0
2.100000 0.400000 0
2.200000 0.400000 0
2.300000 0.400000 0
2.400000 0.400000 0
2.500000 0.400000 0
2.600000 0.400000 0
2.700000 0.400000 0
2.800000 0.400000 0
2.900000 0.400000 0
3.000000 0.400000 0
3.100000 0.400000 0
3.200000 0.400000 0
3.300000 0.400000 0
3.400000 0.400000 0
3.500000 0.400000 0
3.600000 0.400000 0
3.700000 0.400000 0
3.800000 0.400000 0
3.900000 0.400000 0
4.000000 0.400000 0
4.100000 0.400000 0
4.200000 0.400000 0
4.300000 0.400000 0
4.400000 0.400000 0
4.500000 0.400000 0
4.600000 0.400000 0
4.700000 0.400000 0
4.800000 0.400000 0
4.900000 0.400000 0
5.000000 0.400000 0
5.100000 0.400000 0
5.200000 0.400000 0
5.300000 0.400000 0
5.400000 0.400000 0
5.500000 0.400000 0
5.600000 0.400000 0
5.700000 0.400000 0
5.800000 0.400000 0
5.900000 0.400000 0
6.000000 0.400000 0
6.100000 0.400000 0
6.200000 0.400000 0
6.300000 0.400000 0
6.400000 0.400000 0
6.500000 0.400000 0
6.600000 0.400000 0
6.700000 0.400000 0
6.800000 0.400000 0
6.900000 0.400000 0
7.000000 0.400000 0
7.100000 0.400000 0
7.200000 0.400000 0
7.300000 0.400000 0
7.400000 0.400000 0
7.500000 0.400000 0
7.600000 0.400000 0
7.700000 0.400000 0
7.800000 0.400000 0
7.900000 0.400000 0
8.000000 0.400000 0
8.100000 0.400000 0
8.200000 0.400000 0
8.300000 0.400000 0
8.400000 0.400000 0
8.500000 0.400000 0
8.600000 0.400000 0
[...]
POINT_DATA 2121 

VECTORS velocity float
0.500000 0.000000 0
-0.000001 0.000000 0
-0.000008 0.000000 0
-0.000021 0.000000 0
-0.000040 0.000000 0
-0.000066 0.000000 0
-0.000099 0.000000 0
-0.000139 0.000000 0
-0.000181 0.000000 0
-0.000223 0.000000 0
-0.000257 0.000000 0
-0.000270 0.000000 0
-0.000248 0.000000 0
-0.000178 0.000000 0
-0.000042 0.000000 0
0.000160 0.000000 0
0.000421 0.000000 0
0.000725 0.000000 0
0.001036 0.000000 0
0.001316 0.000000 0
0.001530 0.000000 0
0.001644 0.000000 0
0.001633 0.000000 0
0.001481 0.000000 0
0.001181 0.000000 0
0.000733 0.000000 0
0.000146 0.000000 0
-0.000566 0.000000 0
-0.001378 0.000000 0
-0.002249 0.000000 0
-0.003068 0.000000 0
-0.003697 0.000000 0
-0.003982 0.000000 0
-0.003814 0.000000 0
-0.003173 0.000000 0
-0.002161 0.000000 0
-0.000969 0.000000 0
0.000244 0.000000 0
0.001378 0.000000 0
0.002359 0.000000 0
0.003140 0.000000 0
0.003706 0.000000 0
0.004056 0.000000 0
0.004197 0.000000 0
0.004137 0.000000 0
0.003880 0.000000 0
0.003430 0.000000 0
0.002781 0.000000 0
0.001922 0.000000 0
0.000842 0.000000 0
-0.000439 0.000000 0
-0.001779 0.000000 0
-0.003087 0.000000 0
-0.004291 0.000000 0
-0.005313 0.000000 0
-0.006055 0.000000 0
-0.006406 0.000000 0
-0.006248 0.000000 0
-0.005498 0.000000 0
-0.004167 0.000000 0
-0.002419 0.000000 0
-0.000553 0.000000 0
0.001244 0.000000 0
0.002874 0.000000 0
0.004246 0.000000 0
0.005286 0.000000 0
0.005949 0.000000 0
0.006214 0.000000 0
0.006083 0.000000 0
0.005573 0.000000 0
0.004717 0.000000 0
0.003565 0.000000 0
0.002198 0.000000 0
0.000736 0.000000 0
-0.000623 0.000000 0
-0.001715 0.000000 0
-0.002571 0.000000 0
-0.003250 0.000000 0
-0.003803 0.000000 0
-0.004263 0.000000 0
-0.004632 0.000000 0
-0.004876 0.000000 0
-0.004921 0.000000 0
-0.004669 0.000000 0
-0.004029 0.000000 0
-0.002963 0.000000 0
-0.001547 0.000000 0
0.000043 0.000000 0
0.001684 0.000000 0
0.003301 0.000000 0
0.004788 0.000000 0
0.006021 0.000000 0
0.006866 0.000000 0
0.007197 0.000000 0
0.006942 0.000000 0
0.006125 0.000000 0
0.004891 0.000000 0
0.003487 0.000000 0
0.002201 0.000000 0
0.001318 0.000000 0
0.000960 0.000000 0
1.000000 0.000002 0
1.002541 -0.004598 0
1.010446 -0.010033 0
1.024154 -0.015998 0
1.044147 -0.022301 0
1.070765 -0.028586 0
1.103894 -0.034212 0
1.142572 -0.038288 0
1.184690 -0.039891 0
1.226868 -0.038660 0
1.265990 -0.035089 0
1.300116 -0.030071 0
1.328415 -0.024378 0
1.350711 -0.018463 0
1.367042 -0.012489 0
1.377431 -0.006477 0
1.381817 -0.000492 0
1.380179 0.005347 0
1.372683 0.010858 0
1.359760 0.015773 0
1.342161 0.019816 0
1.320920 0.022745 0
1.297298 0.024384 0
1.272695 0.024630 0
1.248575 0.023454 0
1.226382 0.020898 0
1.207479 0.017051 0
1.193109 0.012040 0
1.184361 0.006011 0
1.182113 -0.000726 0
1.186875 -0.007492 0
1.198452 -0.013308 0
1.215561 -0.017116 0
1.235722 -0.018050 0
1.255593 -0.015790 0
1.271728 -0.010772 0
1.281453 -0.004041 0
1.283402 0.003321 0
1.277426 0.010529 0
1.264153 0.017012 0
1.244690 0.022398 0
1.220376 0.026496 0
1.192629 0.029237 0
1.162853 0.030622 0
1.132412 0.030676 0
1.102624 0.029422 0
1.074775 0.026865 0
1.050122 0.022975 0
1.029875 0.017684 0
1.015148 0.010935 0
1.006871 0.002915 0
1.005734 -0.005687 0
1.012139 -0.014102 0
1.026118 -0.021809 0
1.047230 -0.028313 0
1.074505 -0.033071 0
1.106438 -0.035491 0
1.140951 -0.034985 0
1.175344 -0.031132 0
1.206382 -0.023973 0
1.230650 -0.014320 0
1.245253 -0.003632 0
1.248656 0.006871 0
1.241163 0.016530 0
1.223989 0.024833 0
1.198847 0.031347 0
1.167800 0.035767 0
1.133111 0.037920 0
1.097116 0.037742 0
1.062103 0.035261 0
1.030199 0.030596 0
1.003213 0.023992 0
0.982454 0.015892 0
0.968570 0.007030 0
0.961540 -0.001434 0
0.960890 -0.008519 0
0.965797 -0.014068 0
0.975383 -0.018369 0
0.988921 -0.021744 0
1.005871 -0.024420 0
1.025847 -0.026470 0
1.048491 -0.027766 0
1.073268 -0.027969 0
1.099249 -0.026598 0
1.124972 -0.023188 0
1.148451 -0.017555 0
1.167352 -0.010052 0
1.179376 -0.001506 0
1.182860 0.007312 0
1.177452 0.015887 0
1.163744 0.023668 0
1.142924 0.029984 0
1.116784 0.034104 0
1.087658 0.035351 0
1.058235 0.033304 0
1.031210 0.028069 0
1.008793 0.020452 0
0.992235 0.011936 0
0.981540 0.004416 0
0.975536 0.001892 0
0.970544 0.002272 0
1.000000 0.000004 0
1.002852 -0.010458 0
1.011200 -0.021630 0
1.025432 -0.033721 0
1.046246 -0.046630 0
1.074408 -0.059765 0
1.110347 -0.071823 0
1.153490 -0.080802 0
1.201688 -0.084285 0
1.249446 -0.081271 0
1.292361 -0.073211 0
1.328587 -0.062390 0
1.357958 -0.050569 0
1.380953 -0.038617 0
1.398041 -0.026713 0
1.409344 -0.014758 0
1.414625 -0.002732 0
1.413686 0.009145 0
1.406548 0.020425 0
1.393585 0.030524 0
1.375578 0.038838 0
1.353650 0.044857 0
1.329165 0.048216 0
1.303623 0.048711 0
1.278573 0.046300 0
1.255518 0.041081 0
1.235848 0.033257 0
1.220805 0.023104 0
1.211492 0.010983 0
1.208943 -0.002526 0
1.214062 -0.016342 0
1.227134 -0.028679 0
1.247172 -0.037255 0
1.271612 -0.040009 0
1.296582 -0.035980 0
1.317726 -0.025833 0
1.331436 -0.011650 0
1.335964 0.004045 0
1.331510 0.019258 0
1.319131 0.032741 0
1.300267 0.043782 0
1.276475 0.052065 0
1.249272 0.057526 0
1.220076 0.060218 0
1.190197 0.060229 0
1.160860 0.057636 0
1.133214 0.052500 0
1.108324 0.044897 0
1.087118 0.034969 0
1.070313 0.022998 0
1.058388 0.009408 0
1.051763 -0.005274 0
1.051054 -0.020390 0
1.056691 -0.035096 0
1.068771 -0.048393 0
1.087082 -0.059212 0
1.111197 -0.066444 0
1.140358 -0.068902 0
1.173146 -0.065424 0
1.207171 -0.055296 0
1.239002 -0.038860 0
1.264496 -0.017994 0
1.279813 0.004100 0
1.283330 0.024676 0
1.276075 0.042322 0
1.259776 0.056191 0
1.236504 0.065736 0
1.208488 0.070682 0
1.177965 0.071004 0
1.147031 0.066912 0
1.117493 0.058885 0
1.090726 0.047740 0
1.067584 0.034637 0
1.048406 0.020908 0
1.033223 0.007674 0
1.022180 -0.004262 0
1.015344 -0.014499 0
1.012515 -0.023132 0
1.013477 -0.030495 0
1.018183 -0.036932 0
1.026811 -0.042625 0
1.039651 -0.047426 0
1.056820 -0.050762 0
1.077996 -0.051709 0
1.102256 -0.049206 0
1.128052 -0.042384 0
1.153233 -0.030930 0
1.175138 -0.015513 0
1.191030 0.001918 0
1.199073 0.019109 0
1.199238 0.034520 0
1.192450 0.046952 0
1.180088 0.055258 0
1.163822 0.058540 0
1.145381 0.056439 0
1.126324 0.049433 0
1.107879 0.038965 0
1.090899 0.027243 0
1.075932 0.016690 0
1.063335 0.010986 0
1.054783 0.009385 0
1.000000 0.000005 0
1.002444 -0.015811 0
1.009946 -0.032621 0
1.023174 -0.051052 0
1.043311 -0.071282 0
1.071955 -0.092688 0
1.110738 -0.113290 0
1.160213 -0.129612 0
1.219263 -0.135819 0
1.275661 -0.129306 0
1.322552 -0.114216 0
1.359302 -0.095667 0
1.387579 -0.076758 0
1.409271 -0.058560 0
1.425651 -0.040874 0
1.436955 -0.023054 0
1.442494 -0.004836 0
1.441488 0.013423 0
1.433602 0.030956 0
1.419096 0.046739 0
1.398835 0.059746 0
1.374121 0.069153 0
1.346510 0.074405 0
1.317686 0.075216 0
1.289362 0.071554 0
1.263166 0.063617 0
1.240545 0.051761 0
1.222719 0.036394 0
1.210755 0.017872 0
1.205814 -0.003290 0
1.209339 -0.025672 0
1.222244 -0.046402 0
1.243991 -0.061576 0
1.272278 -0.067444 0
1.303178 -0.061892 0
1.331472 -0.045619 0
1.351746 -0.022280 0
1.360513 0.003239 0
1.357935 0.027354 0
1.345965 0.048253 0
1.326759 0.065055 0
1.302342 0.077491 0
1.274460 0.085635 0
1.244570 0.089696 0
1.213900 0.089891 0
1.183521 0.086405 0
1.154393 0.079399 0
1.127380 0.069069 0
1.103239 0.055693 0
1.082570 0.039663 0
1.065777 0.021463 0
1.053021 0.001644 0
1.044294 -0.019031 0
1.039741 -0.039526 0
1.039771 -0.058703 0
1.045130 -0.075493 0
1.056952 -0.088762 0
1.076202 -0.096929 0
1.102882 -0.097938 0
1.135574 -0.089822 0
1.171403 -0.071639 0
1.206259 -0.044439 0
1.235231 -0.011962 0
1.253702 0.020267 0
1.260357 0.048384 0
1.256587 0.070914 0
1.244244 0.087051 0
1.225373 0.096454 0
1.202012 0.099196 0
1.176038 0.095732 0
1.149055 0.086899 0
1.122341 0.073899 0
1.096874 0.058212 0
1.073391 0.041390 0
1.052383 0.024790 0
1.033983 0.009358 0
1.018152 -0.004406 0
1.004820 -0.016505 0
0.994243 -0.027414 0
0.987248 -0.037756 0
0.984982 -0.047939 0
0.988530 -0.057775 0
0.998449 -0.066315 0
1.014509 -0.072036 0
1.035764 -0.073246 0
1.060766 -0.068533 0
1.087758 -0.057139 0
1.114757 -0.039306 0
1.139493 -0.016626 0
1.159353 0.007676 0
1.172516 0.030288 0
1.179012 0.049131 0
1.179474 0.062730 0
1.174784 0.070055 0
1.165902 0.070799 0
1.153778 0.065568 0
1.139372 0.055874 0
1.123760 0.043880 0
1.108190 0.031977 0
1.093955 0.023037 0
1.083801 0.019069 0
1.000000 0.000007 0
1.001905 -0.020416 0
1.007916 -0.042366 0
1.018971 -0.067090 0
1.036854 -0.095414 0
1.064373 -0.127189 0
1.105349 -0.160068 0
1.163189 -0.189303 0
1.242340 -0.199711 0
1.309587 -0.184550 0
1.356644 -0.156853 0
1.388477 -0.127429 0
1.410689 -0.100552 0
1.427358 -0.076685 0
1.440946 -0.054386 0
1.452015 -0.031601 0
1.458928 -0.007266 0
1.459067 0.018036 0
1.451215 0.042815 0
1.435439 0.065287 0
1.412784 0.083809 0
1.384818 0.097178 0
1.353358 0.104645 0
1.320343 0.105854 0
1.287737 0.100817 0
1.257384 0.089895 0
1.230823 0.073702 0
1.209164 0.052893 0
1.193128 0.027892 0
1.183213 -0.001099 0
1.180361 -0.032759 0
1.186445 -0.063315 0
1.202152 -0.087273 0
1.227037 -0.099185 0
1.259387 -0.095168 0
1.295180 -0.074401 0
1.327661 -0.040697 0
1.349023 -0.002153 0
1.355070 0.033804 0
1.348324 0.063920 0
1.332086 0.087405 0
1.309203 0.104364 0
1.281921 0.115298 0
1.251960 0.120777 0
1.220657 0.121277 0
1.189095 0.117142 0
1.158210 0.108639 0
1.128844 0.096049 0
1.101720 0.079778 0
1.077284 0.060458 0
1.055451 0.038956 0
1.035457 0.016207 0
1.016178 -0.007112 0
0.997180 -0.030572 0
0.980158 -0.053778 0
0.968608 -0.076388 0
0.966168 -0.097511 0
0.975043 -0.114825 0
0.995304 -0.124788 0
1.025294 -0.123811 0
1.062250 -0.109541 0
1.102635 -0.081820 0
1.142175 -0.043343 0
1.175722 -0.000452 0
1.198360 0.039433 0
1.209559 0.072300 0
1.210652 0.096946 0
1.203329 0.112911 0
1.189378 0.120337 0
1.170519 0.119868 0
1.148298 0.112581 0
1.124053 0.099920 0
1.098896 0.083586 0
1.073659 0.065398 0
1.048812 0.047080 0
1.024452 0.029966 0
1.000595 0.014661 0
0.977740 0.000775 0
0.957160 -0.012925 0
0.940867 -0.027671 0
0.931103 -0.043907 0
0.929313 -0.060894 0
0.935663 -0.076742 0
0.949297 -0.089025 0
0.968830 -0.095465 0
0.992721 -0.094380 0
1.019448 -0.084923 0
1.047534 -0.067250 0
1.075448 -0.042680 0
1.101385 -0.013916 0
1.122931 0.014859 0
1.138603 0.039992 0
1.148331 0.059484 0
1.152357 0.072109 0
1.151120 0.077442 0
1.145231 0.075961 0
1.135519 0.068980 0
1.123072 0.058422 0
1.109244 0.046492 0
1.095565 0.035372 0
1.084927 0.029709 0
1.000000 0.000008 0
1.001072 -0.023736 0
1.004594 -0.049691 0
1.011599 -0.079993 0
1.024266 -0.116684 0
1.046644 -0.161174 0
1.085733 -0.212088 0
1.151144 -0.266585 0
1.265360 -0.282206 0
1.336602 -0.243610 0
1.368645 -0.193117 0
1.382662 -0.149727 0
1.389168 -0.115639 0
1.393688 -0.088807 0
1.399862 -0.065527 0
1.409329 -0.041037 0
1.419899 -0.011888 0
1.424905 0.021136 0
1.420429 0.054581 0
1.406288 0.085165 0
1.383912 0.110362 0
1.355102 0.128575 0
1.321783 0.138876 0
1.286026 0.140833 0
1.250009 0.134511 0
1.215809 0.120529 0
1.185002 0.099979 0
1.158290 0.074092 0
1.135559 0.043833 0
1.116079 0.009489 0
1.098605 -0.028890 0
1.084846 -0.068179 0
1.079915 -0.102156 0
1.088392 -0.124672 0
1.112669 -0.130034 0
1.151043 -0.113898 0
1.197286 -0.076131 0
1.241205 -0.024172 0
1.271302 0.028056 0
1.283559 0.071237 0
1.282141 0.104176 0
1.270684 0.127656 0
1.251955 0.142877 0
1.228071 0.150959 0
1.200691 0.152756 0
1.171172 0.148851 0
1.140679 0.139648 0
1.110222 0.125557 0
1.080530 0.107251 0
1.051630 0.085930 0
1.022378 0.063288 0
0.990801 0.040916 0
0.955881 0.019246 0
0.919581 -0.003503 0
0.887041 -0.030126 0
0.864857 -0.061498 0
0.857129 -0.095191 0
0.863857 -0.126058 0
0.882936 -0.148183 0
0.911823 -0.156762 0
0.948044 -0.148978 0
0.989083 -0.124364 0
1.032143 -0.085051 0
1.073797 -0.035922 0
1.109071 0.014543 0
1.133827 0.058620 0
1.148097 0.093280 0
1.152845 0.117726 0
1.149375 0.132004 0
1.139094 0.136811 0
1.123364 0.133363 0
1.103389 0.123300 0
1.080105 0.108604 0
1.054080 0.091472 0
1.025576 0.073995 0
0.994955 0.057572 0
0.963334 0.042305 0
0.933014 0.026927 0
0.907058 0.009457 0
0.888231 -0.011698 0
0.878182 -0.036384 0
0.877113 -0.062335 0
0.884010 -0.086300 0
0.897383 -0.105203 0
0.915779 -0.116671 0
0.937951 -0.119153 0
0.962816 -0.111953 0
0.989368 -0.095308 0
1.016590 -0.070478 0
1.043342 -0.039807 0
1.068087 -0.006931 0
1.088606 0.023729 0
1.103864 0.048974 0
1.113598 0.067265 0
1.117833 0.077923 0
1.116871 0.081167 0
1.111299 0.078031 0
1.102007 0.070152 0
1.090201 0.059482 0
1.077408 0.047353 0
1.066817 0.040679 0
1.000000 0.000010 0
0.999895 -0.025018 0
0.999765 -0.052894 0
1.000332 -0.086762 0
1.003414 -0.130455 0
1.013230 -0.188643 0
1.039338 -0.264551 0
1.101231 -0.368919 0
1.262930 -0.385167 0
1.308177 -0.287842 0
1.292907 -0.202927 0
1.271509 -0.147957 0
1.251581 -0.111568 0
1.235387 -0.087372 0
1.226502 -0.070025 0
1.229232 -0.051636 0
1.244693 -0.022843 0
1.263838 0.017503 0
1.271676 0.061429 0
1.267954 0.101801 0
1.254646 0.134990 0
1.233313 0.159304 0
1.205349 0.173718 0
1.172501 0.177624 0
1.137005 0.171032 0
1.101235 0.154901 0
1.066508 0.131222 0
1.031513 0.102343 0
0.992869 0.070114 0
0.949072 0.035867 0
0.903407 -0.001511 0
0.862783 -0.044612 0
0.838667 -0.090811 0
0.838273 -0.131936 0
0.861224 -0.157822 0
0.903840 -0.159027 0
0.960904 -0.130863 0
1.025226 -0.076165 0
1.086183 -0.008548 0
1.130926 0.053080 0
1.157028 0.100281 0
1.168560 0.134549 0
1.168524 0.157910 0
1.159234 0.172041 0
1.142628 0.178174 0
1.120353 0.177153 0
1.093739 0.169588 0
1.063576 0.156196 0
1.029720 0.138369 0
0.990937 0.118608 0
0.945939 0.099783 0
0.895749 0.082705 0
0.845491 0.064110 0
0.803089 0.038271 0
0.774967 0.000951 0
0.763118 -0.046470 0
0.765356 -0.096505 0
0.778103 -0.140625 0
0.798685 -0.172749 0
0.825673 -0.188916 0
0.858231 -0.186800 0
0.895401 -0.165921 0
0.935716 -0.128060 0
0.977106 -0.077384 0
1.016732 -0.020599 0
1.049705 0.033272 0
1.073425 0.077926 0
1.087842 0.111632 0
1.093509 0.134088 0
1.091269 0.145878 0
1.082026 0.148285 0
1.066554 0.143177 0
1.045368 0.132894 0
1.018794 0.119924 0
0.987389 0.106202 0
0.952661 0.092206 0
0.917535 0.076601 0
0.885970 0.057050 0
0.861711 0.031858 0
0.846875 0.001206 0
0.841336 -0.032789 0
0.843566 -0.066722 0
0.851756 -0.097012 0
0.864445 -0.120794 0
0.880647 -0.136035 0
0.899709 -0.141418 0
0.921111 -0.136340 0
0.944301 -0.121025 0
0.968613 -0.096654 0
0.993233 -0.065413 0
1.017147 -0.030406 0
1.038797 0.004214 0
1.056350 0.034491 0
1.069068 0.058139 0
1.076613 0.074168 0
1.078965 0.082493 0
1.076420 0.083843 0
1.069611 0.079519 0
1.059593 0.071089 0
1.047920 0.058755 0
1.037929 0.051472 0
1.000000 0.000011 0
0.998477 -0.023507 0
0.993833 -0.050128 0
0.985915 -0.083639 0
0.974838 -0.129575 0
0.962042 -0.197085 0
0.953725 -0.300075 0
0.971683 -0.490170 0
1.127763 -0.489154 0
1.110958 -0.273597 0
1.003465 -0.156457 0
0.941679 -0.108394 0
0.896188 -0.079508 0
0.858244 -0.063724 0
0.830373 -0.059369 0
0.823023 -0.059229 0
0.844200 -0.046497 0
0.889421 -0.005850 0
0.934627 0.050461 0
0.962270 0.102192 0
0.976958 0.145000 0
0.979137 0.177870 0
0.968619 0.199685 0
0.945730 0.209174 0
0.910971 0.205776 0
0.864633 0.191026 0
0.807275 0.169707 0
0.741510 0.147741 0
0.673613 0.126284 0
0.613158 0.098964 0
0.570828 0.057411 0
0.552755 -0.003429 0
0.556783 -0.077643 0
0.578320 -0.147230 0
0.613878 -0.195607 0
0.661799 -0.213585 0
0.721216 -0.197516 0
0.790362 -0.149449 0
0.865046 -0.077645 0
0.935292 0.000393 0
0.988946 0.066541 0
1.024990 0.116159 0
1.046210 0.152202 0
1.054571 0.176854 0
1.051776 0.191636 0
1.039249 0.197738 0
1.017863 0.196424 0
0.987606 0.189575 0
0.947647 0.179889 0
0.897702 0.169710 0
0.840674 0.158475 0
0.784261 0.141365 0
0.738632 0.111909 0
0.711119 0.067025 0
0.702745 0.009851 0
0.708351 -0.051880 0
0.721088 -0.110169 0
0.737094 -0.159382 0
0.755307 -0.195748 0
0.776273 -0.216307 0
0.801056 -0.218708 0
0.830313 -0.201853 0
0.863730 -0.166760 0
0.899990 -0.116939 0
0.937057 -0.058057 0
0.971900 0.001924 0
1.000192 0.055141 0
1.020501 0.097642 0
1.032502 0.128576 0
1.036318 0.148293 0
1.032228 0.158078 0
1.020488 0.159956 0
1.001364 0.156362 0
0.975476 0.149449 0
0.944420 0.140126 0
0.911194 0.127424 0
0.879854 0.108994 0
0.854304 0.082751 0
0.836973 0.048554 0
0.828305 0.008678 0
0.827132 -0.033076 0
0.831437 -0.072755 0
0.839463 -0.107178 0
0.850098 -0.134094 0
0.862811 -0.151936 0
0.877462 -0.159617 0
0.894051 -0.156545 0
0.912484 -0.142809 0
0.932429 -0.119410 0
0.953294 -0.088342 0
0.974255 -0.052496 0
0.994260 -0.015473 0
1.011648 0.018702 0
1.025155 0.047001 0
1.034137 0.068026 0
1.038299 0.081360 0
1.037686 0.087385 0
1.032747 0.086979 0
1.024452 0.081173 0
1.014392 0.069017 0
1.005631 0.061348 0
1.000000 0.000011 0
0.997114 -0.018854 0
0.988052 -0.040330 0
0.971447 -0.067762 0
0.944625 -0.106571 0
0.902769 -0.167517 0
0.837052 -0.274181 0
0.731965 -0.542953 0
0.546270 -0.524445 0
0.000104 -0.163550 0
0.392648 -0.033645 0
0.318780 -0.040671 0
0.299189 -0.028131 0
0.297414 -0.021556 0
0.294393 -0.034804 0
0.301772 -0.065467 0
0.333891 -0.089245 0
0.397063 -0.072927 0
0.480692 -0.011424 0
0.554408 0.059467 0
0.605744 0.118120 0
0.636656 0.167640 0
0.646041 0.207124 0
0.633244 0.235271 0
0.598201 0.252129 0
0.542731 0.258601 0
0.473195 0.254354 0
0.402607 0.236016 0
0.347999 0.198477 0
0.322534 0.138665 0
0.329162 0.058903 0
0.359911 -0.030561 0
0.398544 -0.116374 0
0.435793 -0.189036 0
0.471890 -0.241308 0
0.511160 -0.266366 0
0.558332 -0.259423 0
0.616076 -0.219995 0
0.683659 -0.153479 0
0.756936 -0.070821 0
0.825051 0.010581 0
0.877625 0.077284 0
0.914369 0.128328 0
0.936468 0.166474 0
0.944843 0.193495 0
0.940148 0.211064 0
0.922600 0.221229 0
0.892230 0.226411 0
0.850104 0.228271 0
0.800363 0.225581 0
0.751164 0.213226 0
0.712287 0.184749 0
0.690340 0.137255 0
0.685774 0.074163 0
0.694079 0.003725 0
0.708602 -0.064806 0
0.724110 -0.125241 0
0.738144 -0.174840 0
0.750454 -0.211926 0
0.762395 -0.234665 0
0.776233 -0.240843 0
0.794159 -0.228598 0
0.817280 -0.197740 0
0.845146 -0.150713 0
0.876051 -0.092510 0
0.907606 -0.029864 0
0.936117 0.029323 0
0.958599 0.079322 0
0.973852 0.118270 0
0.981298 0.146151 0
0.980658 0.164114 0
0.971891 0.174039 0
0.955419 0.177904 0
0.932587 0.176867 0
0.906042 0.170483 0
0.879512 0.156770 0
0.856815 0.133491 0
0.840578 0.099931 0
0.831581 0.057858 0
0.829050 0.011048 0
0.831442 -0.035920 0
0.836970 -0.079054 0
0.844212 -0.115672 0
0.852324 -0.144141 0
0.861037 -0.163399 0
0.870562 -0.172658 0
0.881365 -0.171360 0
0.893874 -0.159402 0
0.908212 -0.137464 0
0.924085 -0.107238 0
0.940826 -0.071371 0
0.957502 -0.033179 0
0.972902 0.003597 0
0.985531 0.035650 0
0.994501 0.061024 0
0.999313 0.078945 0
0.999848 0.089396 0
0.996445 0.092754 0
0.990016 0.089445 0
0.982073 0.077576 0
0.975071 0.069649 0
1.000000 0.000011 0
0.996199 -0.011558 0
0.984164 -0.024457 0
0.961695 -0.040205 0
0.924180 -0.060884 0
0.862386 -0.089499 0
0.756691 -0.129262 0
0.563948 -0.199384 0
0.074250 0.000420 0
-0.527880 0.123669 0
0.000000 -0.000016 0
-0.033884 -0.025750 0
-0.052601 -0.058142 0
-0.054741 -0.058929 0
-0.065090 -0.063729 0
-0.068080 -0.098730 0
-0.047453 -0.141792 0
0.000855 -0.152654 0
0.081072 -0.106888 0
0.181226 -0.022863 0
0.259497 0.062750 0
0.308025 0.137570 0
0.332504 0.203096 0
0.332979 0.257014 0
0.312316 0.296291 0
0.278514 0.316040 0
0.244883 0.309841 0
0.226223 0.272947 0
0.232305 0.206369 0
0.263526 0.117812 0
0.310991 0.020044 0
0.358166 -0.072808 0
0.396492 -0.153526 0
0.424332 -0.220581 0
0.443961 -0.270977 0
0.461023 -0.300025 0
0.482955 -0.302430 0
0.516287 -0.274777 0
0.563741 -0.218505 0
0.623073 -0.141001 0
0.687957 -0.054149 0
0.746561 0.026840 0
0.790947 0.093358 0
0.820580 0.146378 0
0.835489 0.187954 0
0.835766 0.219980 0
0.821841 0.244340 0
0.795400 0.262070 0
0.760753 0.271755 0
0.725409 0.268650 0
0.698220 0.246554 0
0.685499 0.202193 0
0.688209 0.138426 0
0.702635 0.063292 0
0.723041 -0.012970 0
0.743335 -0.081905 0
0.760108 -0.139706 0
0.771779 -0.185723 0
0.778244 -0.219998 0
0.780914 -0.242087 0
0.782592 -0.250475 0
0.786779 -0.242902 0
0.796388 -0.217749 0
0.812538 -0.175712 0
0.834272 -0.120519 0