# vtk DataFile Version 2.0
generated by CFD-lab course output (written by Tobias Neckel) 
ASCII

DATASET STRUCTURED_GRID
DIMENSIONS  101 21 1 
POINTS 2121 float

0.000000 0.000000 0
0.100000 0.000000 0
0.200000 0.000000 0
0.300000 0.000000 0
0.400000 0.000000 0
0.500000 0.000000 0
0.600000 0.000000 0
0.700000 0.000000 0
0.800000 0.000000 0
0.900000 0.000000 0
1.000000 0.000000 0
1.100000 0.000000 0
1.200000 0.000000 0
1.300000 0.000000 0
1.400000 0.000000 0
1.500000 0.000000 0
1.600000 0.000000 0
1.700000 0.000000 0
1.800000 0.000000 0
1.900000 0.000000 0
2.000000 0.000000 0
2.100000 0.000000 0
2.200000 0.000000 0
2.300000 0.000000 0
2.400000 0.000000 0
2.500000 0.000000 0
2.600000 0.000000 0
2.700000 0.000000 0
2.800000 0.000000 0
2.900000 0.000000 0
3.000000 0.000000 0
3.100000 0.000000 0
3.200000 0.000000 0
3.300000 0.000000 0
3.400000 0.000000 0
3.500000 0.000000 0
3.600000 0.000000 0
3.700000 0.000000 0
3.800000 0.000000 0
3.900000 0.000000 0
4.000000 0.000000 0
4.100000 0.000000 0
4.200000 0.000000 0
4.300000 0.000000 0
4.400000 0.000000 0
4.500000 0.000000 0
4.600000 0.000000 0
4.700000 0.000000 0
4.800000 0.000000 0
4.900000 0.000000 0
5.000000 0.000000 0
5.100000 0.000000 0
5.200000 0.000000 0
5.300000 0.000000 0
5.400000 0.000000 0
5.500000 0.000000 0
5.600000 0.000000 0
5.700000 0.000000 0
5.800000 0.000000 0
5.900000 0.000000 0
6.000000 0.000000 0
6.100000 0.000000 0
6.200000 0.000000 0
6.300000 0.000000 0
6.400000 0.000000 0
6.500000 0.000000 0
6.600000 0.000000 0
6.700000 0.000000 0
6.800000 0.000000 0
6.900000 0.000000 0
7.000000 0.000000 0
7.100000 0.000000 0
7.200000 0.000000 0
7.300000 0.000000 0
7.400000 0.000000 0
7.500000 0.000000 0
7.600000 0.000000 0
7.700000 0.000000 0
7.800000 0.000000 0
7.900000 0.000000 0
8.000000 0.000000 0
8.100000 0.000000 0
8.200000 0.000000 0
8.300000 0.000000 0
8.400000 0.000000 0
8.500000 0.000000 0
8.600000 0.000000 0
8.700000 0.000000 0
8.800000 0.000000 0
8.900000 0.000000 0
9.000000 0.000000 0
9.100000 0.000000 0
9.200000 0.000000 0
9.300000 0.000000 0
9.400000 0.000000 0
9.500000 0.000000 0
9.600000 0.000000 0
9.700000 0.000000 0
9.800000 0.000000 0
9.900000 0.000000 0
10.000000 0.000000 0
0.000000 0.100000 0
0.100000 0.100000 0
0.200000 0.100000 0
0.300000 0.100000 0
0.400000 0.100000 0
0.500000 0.100000 0
0.600000 0.100000 0
0.700000 0.100000 0
0.800000 0.100000 0
0.900000 0.100000 0
1.000000 0.100000 0
1.100000 0.100000 0
1.200000 0.100000 0
1.300000 0.100000 0
1.400000 0.100000 0
1.500000 0.100000 0
1.600000 0.100000 0
1.700000 0.100000 0
1.800000 0.100000 0
1.900000 0.100000 0
2.000000 0.100000 0
2.100000 0.100000 0
2.200000 0.100000 0
2.300000 0.100000 0
2.400000 0.100000 0
2.500000 0.100000 0
2.600000 0.100000 0
2.700000 0.100000 0
2.800000 0.100000 0
2.900000 0.100000 0
3.000000 0.100000 0
3.100000 0.100000 0
3.200000 0.100000 0
3.300000 0.100000 0
3.400000 0.100000 0
3.500000 0.100000 0
3.600000 0.100000 0
3.700000 0.100000 0
3.800000 0.100000 0
3.900000 0.100000 0
4.000000 0.100000 0
4.100000 0.100000 0
4.200000 0.100000 0
4.300000 0.100000 0
4.400000 0.100000 0
4.500000 0.100000 0
4.600000 0.100000 0
4.700000 0.100000 0
4.800000 0.100000 0
4.900000 0.100000 0
5.000000 0.100000 0
5.100000 0.100000 0
5.200000 0.100000 0
5.300000 0.100000 0
5.400000 0.100000 0
5.500000 0.100000 0
5.600000 0.100000 0
5.700000 0.100000 0
5.800000 0.100000 0
5.900000 0.100000 0
6.000000 0.100000 0
6.100000 0.100000 0
6.200000 0.100000 0
6.300000 0.100000 0
6.400000 0.100000 0
6.500000 0.100000 0
6.600000 0.100000 0
6.700000 0.100000 0
6.800000 0.100000 0
6.900000 0.100000 0
7.000000 0.100000 0
7.100000 0.100000 0
7.200000 0.100000 0
7.300000 0.100000 0
7.400000 0.100000 0
7.500000 0.100000 0
7.600000 0.100000 0
7.700000 0.100000 0
7.800000 0.100000 0
7.900000 0.100000 0
8.000000 0.100000 0
8.100000 0.100000 0
8.200000 0.100000 0
8.300000 0.100000 0
8.400000 0.100000 0
8.500000 0.100000 0
8.600000 0.100000 0
8.700000 0.100000 0
8.800000 0.100000 0
8.900000 0.100000 0
9.000000 0.100000 0
9.100000 0.100000 0
9.200000 0.100000 0
9.300000 0.100000 0
9.400000 0.100000 0
9.500000 0.100000 0
9.600000 0.100000 0
9.700000 0.100000 0
9.800000 0.100000 0
9.900000 0.100000 0
10.000000 0.100000 0
0.000000 0.200000 0
0.100000 0.200000 0
0.200000 0.200000 0
0.300000 0.200000 0
0.400000 0.200000 0
0.500000 0.200000 0
0.600000 0.200000 0
0.700000 0.200000 0
0.800000 0.200000 0
0.900000 0.200000 0
1.000000 0.200000 0
1.100000 0.200000 0
1.200000 0.200000 0
1.300000 0.200000 0
1.400000 0.200000 0
1.500000 0.200000 0
1.600000 0.200000 0
1.700000 0.200000 0
1.800000 0.200000 0
1.900000 0.200000 0
2.000000 0.200000 0
2.100000 0.200000 0
2.200000 0.200000 0
2.300000 0.200000 0
2.400000 0.200000 0
2.500000 0.200000 0
2.600000 0.200000 0
2.700000 0.200000 0
2.800000 0.200000 0
2.900000 0.200000 0
3.000000 0.200000 0
3.100000 0.200000 0
3.200000 0.200000 0
3.300000 0.200000 0
3.400000 0.200000 0
3.500000 0.200000 0
3.600000 0.200000 0
3.700000 0.200000 0
3.800000 0.200000 0
3.900000 0.200000 0
4.000000 0.200000 0
4.100000 0.200000 0
4.200000 0.200000 0
4.300000 0.200000 0
4.400000 0.200000 0
4.500000 0.200000 0
4.600000 0.200000 0
4.700000 0.200000 0
4.800000 0.200000 0
4.900000 0.200000 0
5.000000 0.200000 0
5.100000 0.200000 0
5.200000 0.200000 0
5.300000 0.200000 0
5.400000 0.200000 0
5.500000 0.200000 0
5.600000 0.200000 0
5.700000 0.200000 0
5.800000 0.200000 0
5.900000 0.200000 0
6.000000 0.200000 0
6.100000 0.200000 0
6.200000 0.200000 0
6.300000 0.200000 0
6.400000 0.200000 0
6.500000 0.200000 0
6.600000 0.200000 0
6.700000 0.200000 0
6.800000 0.200000 0
6.900000 0.200000 0
7.000000 0.200000 0
7.100000 0.200000 0
7.200000 0.200000 0
7.300000 0.200000 0
7.400000 0.200000 0
7.500000 0.200000 0
7.600000 0.200000 0
7.700000 0.200000 0
7.800000 0.200000 0
7.900000 0.200000 0
8.000000 0.200000 0
8.100000 0.200000 0
8.200000 0.200000 0
8.300000 0.200000 0
8.400000 0.200000 0
8.500000 0.200000 0
8.600000 0.200000 0
8.700000 0.200000 0
8.800000 0.200000 0
8.900000 0.200000 0
9.000000 0.200000 0
9.100000 0.200000 0
9.200000 0.200000 0
9.300000 0.200000 0
9.400000 0.200000 0
9.500000 0.200000 0
9.600000 0.200000 0
9.700000 0.200000 0
9.800000 0.200000 0
9.900000 0.200000 0
10.000000 0.200000 0
0.000000 0.300000 0
0.100000 0.300000 0
0.200000 0.300000 0
0.300000 0.300000 0
0.400000 0.300000 0
0.500000 0.300000 0
0.600000 0.300000 0
0.700000 0.300000 0
0.800000 0.300000 0
0.900000 0.300000 0
1.000000 0.300000 0
1.100000 0.300000 0
1.200000 0.300000 0
1.300000 0.300000 0
1.400000 0.300000 0
1.500000 0.300000 0
1.600000 0.300000 0
1.700000 0.300000 0
1.800000 0.300000 0
1.900000 0.300000 0
2.000000 0.300000 0
2.100000 0.300000 0
2.200000 0.300000 0
2.300000 0.300000 0
2.400000 0.300000 0
2.500000 0.300000 0
2.600000 0.300000 0
2.700000 0.300000 0
2.800000 0.300000 0
2.900000 0.300000 0
3.000000 0.300000 0
3.100000 0.300000 0
3.200000 0.300000 0
3.300000 0.300000 0
3.400000 0.300000 0
3.500000 0.300000 0
3.600000 0.300000 0
3.700000 0.300000 0
3.800000 0.300000 0
3.900000 0.300000 0
4.000000 0.300000 0
4.100000 0.300000 0
4.200000 0.300000 0
4.300000 0.300000 0
4.400000 0.300000 0
4.500000 0.300000 0
4.600000 0.300000 0
4.700000 0.300000 0
4.800000 0.300000 0
4.900000 0.300000 0
5.000000 0.300000 0
5.100000 0.300000 0
5.200000 0.300000 0
5.300000 0.300000 0
5.400000 0.300000 0
5.500000 0.300000 0
5.600000 0.300000 0
5.700000 0.300000 0
5.800000 0.300000 0
5.900000 0.300000 0
6.000000 0.300000 0
6.100000 0.300000 0
6.200000 0.300000 0
6.300000 0.300000 0
6.400000 0.300000 0
6.500000 0.300000 0
6.600000 0.300000 0
6.700000 0.300000 0
6.800000 0.300000 0
6.900000 0.300000 0
7.000000 0.300000 0
7.100000 0.300000 0
7.200000 0.300000 0
7.300000 0.300000 0
7.400000 0.300000 0
7.500000 0.300000 0
7.600000 0.300000 0
7.700000 0.300000 0
7.800000 0.300000 0
7.900000 0.300000 0
8.000000 0.300000 0
8.100000 0.300000 0
8.200000 0.300000 0
8.300000 0.300000 0
8.400000 0.300000 0
8.500000 0.300000 0
8.600000 0.300000 0
8.700000 0.300000 0
8.800000 0.300000 0
8.900000 0.300000 0
9.000000 0.300000 0
9.100000 0.300000 0
9.200000 0.300000 0
9.300000 0.300000 0
9.400000 0.300000 0
9.500000 0.300000 0
9.600000 0.300000 0
9.700000 0.300000 0
9.800000 0.300000 0
9.900000 0.300000 0
10.000000 0.300000 0
0.000000 0.400000 0
0.100000 0.400000 0
0.200000 0.400000 0
0.300000 0.400000 0
0.400000 0.400000 0
0.500000 0.400000 0
0.600000 0.400000 0
0.700000 0.400000 0
0.800000 0.400000 0
0.900000 0.400000 0
1.000000 0.400000 0
1.100000 0.400000 0
1.200000 0.400000 0
1.300000 0.400000 0
1.400000 0.400000 0
1.500000 0.400000 0
1.600000 0.400000 0
1.700000 0.400000 0
1.800000 0.400000 0
1.900000 0.400000 0
2.000000 0.400000 0
2.100000 0.400000 0
2.200000 0.400000 0
2.300000 0.400000 0
2.400000 0.400000 0
2.500000 0.400000 0
2.600000 0.400000 0
2.700000 0.400000 0
2.800000 0.400000 0
2.900000 0.400000 0
3.000000 0.400000 0
3.100000 0.400000 0
3.200000 0.400000 0
3.300000 0.400000 0
3.400000 0.400000 0
3.500000 0.400000 0
3.600000 0.400000 0
3.700000 0.400000 0
3.800000 0.400000 0
3.900000 0.400000 0
4.000000 0.400000 0
4.100000 0.400000 0
4.200000 0.400000 0
4.300000 0.400000 0
4.400000 0.400000 0
4.500000 0.400000 0
4.600000 0.400000 0
4.700000 0.400000 0
4.800000 0.400000 0
4.900000 0.400000 0
5.000000 0.400000 0
5.100000 0.400000 0
5.200000 0.400000 0
5.300000 0.400000 0
5.400000 0.400000 0
5.500000 0.400000 0
5.600000 0.400000 0
5.700000 0.400000 0
5.800000 0.400000 0
5.900000 0.400000 0
6.000000 0.400000 0
6.100000 0.400000 0
6.200000 0.400000 0
6.300000 0.400000 0
6.400000 0.400000 0
6.500000 0.400000 0
6.600000 0.400000 0
6.700000 0.400000 0
6.800000 0.400000 0
6.900000 0.400000 0
7.000000 0.400000 0
7.100000 0.400000 0
7.200000 0.400000 0
7.300000 0.400000 0
7.400000 0.400000 0
7.500000 0.400000 0
7.600000 0.400000 0
7.700000 0.400000 0
7.800000 0.400000 0
7.900000 0.400000 0
8.000000 0.400000 0
8.100000 0.400000 0
8.200000 0.400000 0
8.300000 0.400000 0
8.400000 0.400000 0
8.500000 0.400000 0
8.600000 0.400000 0
[...]
POINT_DATA 2121 

VECTORS velocity float
0.500000 0.000000 0
-0.000004 0.000000 0
-0.000014 0.000000 0
-0.000030 0.000000 0
-0.000052 0.000000 0
-0.000077 0.000000 0
-0.000101 0.000000 0
-0.000122 0.000000 0
-0.000131 0.000000 0
-0.000123 0.000000 0
-0.000087 0.000000 0
-0.000017 0.000000 0
0.000095 0.000000 0
0.000251 0.000000 0
0.000447 0.000000 0
0.000665 0.000000 0
0.000880 0.000000 0
0.001064 0.000000 0
0.001186 0.000000 0
0.001218 0.000000 0
0.001138 0.000000 0
0.000931 0.000000 0
0.000593 0.000000 0
0.000129 0.000000 0
-0.000448 0.000000 0
-0.001112 0.000000 0
-0.001828 0.000000 0
-0.002527 0.000000 0
-0.003086 0.000000 0
-0.003376 0.000000 0
-0.003288 0.000000 0
-0.002789 0.000000 0
-0.001953 0.000000 0
-0.000932 0.000000 0
0.000147 0.000000 0
0.001180 0.000000 0
0.002091 0.000000 0
0.002834 0.000000 0
0.003387 0.000000 0
0.003743 0.000000 0
0.003903 0.000000 0
0.003869 0.000000 0
0.003644 0.000000 0
0.003229 0.000000 0
0.002619 0.000000 0
0.001804 0.000000 0
0.000770 0.000000 0
-0.000477 0.000000 0
-0.001816 0.000000 0
-0.003144 0.000000 0
-0.004374 0.000000 0
-0.005402 0.000000 0
-0.006106 0.000000 0
-0.006357 0.000000 0
-0.006041 0.000000 0
-0.005107 0.000000 0
-0.003621 0.000000 0
-0.001812 0.000000 0
0.000016 0.000000 0
0.001730 0.000000 0
0.003240 0.000000 0
0.004465 0.000000 0
0.005349 0.000000 0
0.005865 0.000000 0
0.006011 0.000000 0
0.005799 0.000000 0
0.005255 0.000000 0
0.004406 0.000000 0
0.003292 0.000000 0
0.001977 0.000000 0
0.000564 0.000000 0
-0.000759 0.000000 0
-0.001847 0.000000 0
-0.002726 0.000000 0
-0.003442 0.000000 0
-0.004036 0.000000 0
-0.004528 0.000000 0
-0.004908 0.000000 0
-0.005126 0.000000 0
-0.005097 0.000000 0
-0.004718 0.000000 0
-0.003908 0.000000 0
-0.002670 0.000000 0
-0.001133 0.000000 0
0.000511 0.000000 0
0.002173 0.000000 0
0.003758 0.000000 0
0.005151 0.000000 0
0.006229 0.000000 0
0.006868 0.000000 0
0.006965 0.000000 0
0.006479 0.000000 0
0.005468 0.000000 0
0.004099 0.000000 0
0.002613 0.000000 0
0.001264 0.000000 0
0.000304 0.000000 0
-0.000263 0.000000 0
-0.000553 0.000000 0
-0.000680 0.000000 0
-0.000802 0.000000 0
1.000000 0.000003 0
1.002589 -0.004707 0
1.010665 -0.010256 0
1.024672 -0.016341 0
1.045091 -0.022761 0
1.072250 -0.029143 0
1.106011 -0.034825 0
1.145357 -0.038885 0
1.188093 -0.040366 0
1.230702 -0.038870 0
1.269905 -0.034856 0
1.303579 -0.029188 0
1.330676 -0.022638 0
1.350789 -0.015707 0
1.363800 -0.008706 0
1.369769 -0.001896 0
1.368979 0.004463 0
1.361984 0.010115 0
1.349630 0.014793 0
1.333050 0.018253 0
1.313613 0.020309 0
1.292842 0.020857 0
1.272320 0.019886 0
1.253589 0.017467 0
1.238065 0.013750 0
1.226978 0.008944 0
1.221316 0.003325 0
1.221725 -0.002600 0
1.228266 -0.007997 0
1.240075 -0.011875 0
1.255172 -0.013363 0
1.270671 -0.012034 0
1.283437 -0.008132 0
1.290899 -0.002480 0
1.291602 0.004005 0
1.285183 0.010570 0
1.272046 0.016616 0
1.253090 0.021743 0
1.229483 0.025724 0
1.202505 0.028456 0
1.173465 0.029905 0
1.143661 0.030070 0
1.114376 0.028955 0
1.086875 0.026559 0
1.062414 0.022855 0
1.042217 0.017775 0
1.027440 0.011237 0
1.019100 0.003341 0
1.018009 -0.005319 0
1.024714 -0.013966 0
1.039352 -0.021974 0
1.061485 -0.028701 0
1.089992 -0.033446 0
1.123060 -0.035502 0
1.158189 -0.034266 0
1.192243 -0.029453 0
1.221676 -0.021404 0
1.243077 -0.011267 0
1.253971 -0.000567 0
1.253591 0.009645 0
1.242733 0.018802 0
1.222839 0.026434 0
1.195766 0.032188 0
1.163620 0.035855 0
1.128611 0.037357 0
1.092941 0.036705 0
1.058709 0.033969 0
1.027835 0.029263 0
1.001943 0.022788 0
0.982211 0.014903 0
0.969234 0.006260 0
0.963008 -0.002051 0
0.963125 -0.009114 0
0.968844 -0.014778 0
0.979384 -0.019272 0
0.994068 -0.022847 0
1.012358 -0.025663 0
1.033815 -0.027718 0
1.057958 -0.028806 0
1.084044 -0.028515 0
1.110864 -0.026329 0
1.136637 -0.021836 0
1.159071 -0.015035 0
1.175635 -0.006550 0
1.184052 0.002680 0
1.183071 0.011961 0
1.172822 0.020773 0
1.154135 0.028499 0
1.128467 0.034450 0
1.097864 0.037922 0
1.064870 0.038313 0
1.032296 0.035325 0
1.002855 0.029196 0
0.978688 0.020800 0
0.960982 0.011497 0
0.949824 0.002878 0
0.944422 -0.003564 0
0.943463 -0.007161 0
0.945182 -0.008037 0
0.947577 -0.004586 0
0.946655 -0.001470 0
1.000000 0.000006 0
1.002905 -0.010676 0
1.011430 -0.022087 0
1.025972 -0.034428 0
1.047234 -0.047581 0
1.075973 -0.060922 0
1.112603 -0.073109 0
1.156505 -0.082083 0
1.205465 -0.085347 0
1.253829 -0.081815 0
1.297041 -0.072880 0
1.333088 -0.060776 0
1.361565 -0.047216 0
1.382606 -0.033130 0
1.396311 -0.018988 0
1.402702 -0.005188 0
1.402002 0.007776 0
1.394723 0.019341 0
1.381718 0.028927 0
1.364188 0.036011 0
1.343611 0.040203 0
1.321634 0.041289 0
1.299957 0.039252 0
1.280220 0.034255 0
1.263903 0.026611 0
1.252283 0.016749 0
1.246456 0.005253 0
1.247351 -0.006949 0
1.255462 -0.018349 0
1.270228 -0.026905 0
1.289565 -0.030595 0
1.309998 -0.028265 0
1.327467 -0.020229 0
1.338564 -0.008165 0
1.341582 0.005715 0
1.336501 0.019554 0
1.324101 0.032090 0
1.305596 0.042560 0
1.282356 0.050581 0
1.255760 0.056013 0
1.227125 0.058839 0
1.197706 0.059084 0
1.168703 0.056780 0
1.141275 0.051956 0
1.116523 0.044653 0
1.095447 0.034970 0
1.078868 0.023114 0
1.067389 0.009429 0
1.061546 -0.005615 0
1.062052 -0.021343 0
1.069427 -0.036771 0
1.083760 -0.050641 0
1.104703 -0.061575 0
1.131550 -0.068197 0
1.163132 -0.069183 0
1.197503 -0.063488 0
1.231698 -0.050835 0
1.261792 -0.032296 0
1.283521 -0.010516 0
1.293743 0.011236 0
1.292227 0.030750 0
1.280503 0.046965 0
1.260526 0.059217 0
1.234479 0.067152 0
1.204593 0.070676 0
1.173023 0.069898 0
1.141727 0.065101 0
1.112346 0.056762 0
1.086098 0.045620 0
1.063697 0.032705 0
1.045384 0.019200 0
1.031138 0.006106 0
1.021090 -0.005839 0
1.015292 -0.016262 0
1.013575 -0.025224 0
1.015781 -0.032973 0
1.021923 -0.039746 0
1.032205 -0.045596 0
1.046876 -0.050223 0
1.065929 -0.052900 0
1.088825 -0.052585 0
1.114360 -0.048197 0
1.140648 -0.038987 0
1.165153 -0.024968 0
1.184868 -0.007422 0
1.197059 0.011245 0
1.200544 0.028950 0
1.195815 0.044371 0
1.183999 0.056288 0
1.166671 0.063613 0
1.145650 0.065584 0
1.122753 0.062031 0
1.099577 0.053624 0
1.077356 0.041888 0
1.056945 0.028879 0
1.038883 0.016575 0
1.023565 0.006376 0
1.011323 -0.000746 0
1.001971 -0.004100 0
0.994860 -0.001458 0
0.989602 0.001554 0
1.000000 0.000010 0
1.002499 -0.016142 0
1.010183 -0.033322 0
1.023731 -0.052144 0
1.044342 -0.072762 0
1.073614 -0.094512 0
1.113178 -0.115357 0
1.163560 -0.131748 0
1.223636 -0.137691 0
1.280941 -0.130448 0
1.328497 -0.114117 0
1.365605 -0.093716 0
1.393721 -0.072159 0
1.414183 -0.050457 0
1.427418 -0.028806 0
1.433122 -0.007591 0
1.431206 0.012439 0
1.421998 0.030397 0
1.406341 0.045326 0
1.385570 0.056359 0
1.361369 0.062864 0
1.335623 0.064512 0
1.310261 0.061300 0
1.287107 0.053522 0
1.267750 0.041687 0
1.253493 0.026391 0
1.245485 0.008258 0
1.245019 -0.011606 0
1.253359 -0.030873 0
1.270518 -0.045978 0
1.294486 -0.053134 0
1.321271 -0.049937 0
1.345558 -0.036699 0
1.362183 -0.016596 0
1.368268 0.006067 0
1.364179 0.028049 0
1.351519 0.047519 0
1.332155 0.063486 0
1.307868 0.075557 0
1.280219 0.083684 0
1.250544 0.087956 0
1.220013 0.088490 0
1.189691 0.085384 0
1.160572 0.078737 0
1.133594 0.068681 0
1.109603 0.055430 0
1.089303 0.039295 0
1.073191 0.020664 0
1.061527 0.000019 0
1.054424 -0.021847 0
1.052136 -0.043681 0
1.055027 -0.063977 0
1.063714 -0.081237 0
1.079119 -0.093931 0
1.101927 -0.100219 0
1.131773 -0.098020 0
1.166736 -0.085694 0
1.203278 -0.063091 0
1.236572 -0.032518 0
1.261309 0.000937 0
1.273781 0.032041 0
1.274493 0.058133 0
1.265296 0.078210 0
1.248319 0.091787 0
1.225736 0.098810 0
1.199608 0.099570 0
1.171760 0.094644 0
1.143697 0.084890 0
1.116569 0.071436 0
1.091213 0.055616 0
1.068215 0.038817 0
1.047911 0.022241 0
1.030305 0.006731 0
1.015270 -0.007262 0
1.002728 -0.019760 0
0.993056 -0.031194 0
0.987215 -0.042085 0
0.986438 -0.052669 0
0.991812 -0.062526 0
1.003770 -0.070459 0
1.021882 -0.074755 0
1.044980 -0.073655 0
1.071386 -0.065824 0
1.099086 -0.050766 0
1.125780 -0.029221 0
1.148732 -0.003711 0
1.165137 0.022022 0
1.174023 0.045049 0
1.175760 0.063597 0
1.171149 0.076275 0
1.161211 0.082234 0
1.147006 0.081400 0
1.129548 0.074595 0
1.109835 0.063433 0
1.088927 0.049972 0
1.067932 0.036260 0
1.047829 0.023997 0
1.029276 0.014433 0
1.012841 0.008427 0
0.999090 0.007784 0
0.990249 0.008680 0
1.000000 0.000014 0
1.001961 -0.020862 0
1.008152 -0.043318 0
1.019534 -0.068586 0
1.037909 -0.097464 0
1.066102 -0.129758 0
1.107948 -0.163055 0
1.166864 -0.192542 0
1.247427 -0.202729 0
1.315886 -0.186679 0
1.364008 -0.157547 0
1.397009 -0.126002 0
1.420552 -0.095797 0
1.438039 -0.066831 0
1.450242 -0.037931 0
1.455769 -0.008979 0
1.453102 0.018898 0
1.441993 0.044204 0
1.423248 0.065355 0
1.398416 0.080983 0
1.369483 0.090150 0
1.338671 0.092399 0
1.308255 0.087769 0
1.280355 0.076766 0
1.256695 0.060224 0
1.238460 0.039015 0
1.226401 0.013728 0
1.221284 -0.014824 0
1.225081 -0.043849 0
1.239149 -0.068032 0
1.262789 -0.081348 0
1.293375 -0.079337 0
1.326003 -0.061141 0
1.353572 -0.030877 0
1.369041 0.003718 0
1.370264 0.036301 0
1.360113 0.064111 0
1.341608 0.086208 0
1.317278 0.102515 0
1.289075 0.113335 0
1.258487 0.119042 0
1.226697 0.119935 0
1.194720 0.116220 0
1.163492 0.108051 0
1.133911 0.095622 0
1.106793 0.079262 0
1.082691 0.059527 0
1.061594 0.037205 0
1.042728 0.013152 0
1.024900 -0.011952 0
1.007692 -0.037374 0
0.992930 -0.062219 0
0.983965 -0.085668 0
0.984354 -0.106410 0
0.996308 -0.121838 0
1.019851 -0.128297 0
1.053110 -0.122340 0
1.092857 -0.102133 0
1.134801 -0.068547 0
1.173655 -0.025973 0
1.203367 0.017564 0
1.220437 0.055447 0
1.225921 0.085389 0
1.221620 0.106710 0
1.209520 0.119385 0
1.191578 0.123872 0
1.169585 0.121010 0
1.145086 0.111951 0
1.119362 0.098103 0
1.093411 0.081058 0
1.067901 0.062500 0
1.043086 0.044014 0
1.018847 0.026802 0
0.995068 0.011316 0
0.972269 -0.003010 0
0.951897 -0.017459 0
0.936256 -0.033126 0
0.927760 -0.050191 0
0.927745 -0.067552 0
0.936141 -0.082966 0
0.951866 -0.093792 0
0.973363 -0.097697 0
0.998957 -0.093089 0
1.026991 -0.079359 0
1.055815 -0.057064 0
1.083619 -0.028109 0
1.107970 0.003662 0
1.126349 0.033750 0
1.138080 0.059163 0
1.143234 0.078163 0
1.142180 0.089727 0
1.135465 0.093694 0
1.123769 0.090795 0
1.107935 0.082510 0
1.088961 0.070781 0
1.067933 0.057672 0
1.045911 0.045031 0
1.023926 0.034241 0
1.003163 0.026085 0
0.985180 0.021132 0
0.973869 0.018892 0
1.000000 0.000018 0
1.001126 -0.024295 0
1.004819 -0.050894 0
1.012141 -0.081900 0
1.025294 -0.119329 0
1.048356 -0.164551 0
1.088364 -0.216120 0
1.154979 -0.271228 0
1.271006 -0.286716 0
1.343419 -0.247030 0
1.376551 -0.195242 0
1.392397 -0.150262 0
1.402321 -0.113192 0
1.411762 -0.080150 0
1.421892 -0.046539 0
1.429413 -0.010453 0
1.428609 0.026214 0
1.417804 0.060250 0
1.397836 0.088904 0
1.370482 0.110125 0
1.337919 0.122610 0
1.302606 0.125741 0
1.267159 0.119616 0
1.234056 0.105082 0
1.205111 0.083582 0
1.181047 0.056686 0
1.161637 0.025434 0
1.146073 -0.010286 0
1.134599 -0.048738 0
1.132067 -0.083686 0
1.142012 -0.107361 0
1.166271 -0.113151 0
1.202954 -0.096897 0
1.245271 -0.059636 0
1.282248 -0.010627 0
1.303192 0.036975 0
1.307677 0.076173 0
1.300256 0.106319 0
1.284342 0.128088 0
1.262383 0.142472 0
1.236159 0.150332 0
1.207048 0.152255 0
1.176211 0.148588 0
1.144703 0.139544 0
1.113520 0.125379 0
1.083468 0.106650 0
1.054731 0.084494 0
1.026244 0.060627 0
0.995789 0.036713 0
0.961778 0.013189 0
0.925685 -0.011712 0
0.892877 -0.040250 0
0.870826 -0.072661 0
0.864049 -0.106275 0
0.872631 -0.135717 0
0.894423 -0.154823 0
0.926709 -0.158700 0
0.966677 -0.144783 0
1.011296 -0.113317 0
1.057017 -0.067629 0
1.099224 -0.014743 0
1.131822 0.035577 0
1.152550 0.077026 0
1.162348 0.108186 0
1.162649 0.128850 0
1.155068 0.139503 0
1.141210 0.141134 0
1.122541 0.135111 0
1.100280 0.123109 0
1.075284 0.107075 0
1.047942 0.089141 0
1.018294 0.071295 0
0.986562 0.054750 0
0.953946 0.039316 0
0.923026 0.023411 0
0.897133 0.004819 0
0.879137 -0.017945 0
0.870602 -0.044155 0
0.871429 -0.070905 0
0.880318 -0.094578 0
0.895624 -0.111975 0
0.915834 -0.120743 0
0.939656 -0.119449 0
0.965943 -0.107621 0
0.993590 -0.085848 0
1.021426 -0.055865 0
1.048051 -0.020707 0
1.071143 0.014939 0
1.088750 0.046712 0
1.100286 0.072174 0
1.105564 0.090002 0
1.104692 0.099809 0
1.098012 0.102123 0
1.086078 0.098239 0
1.069622 0.089970 0
1.049530 0.079306 0
1.026876 0.068000 0
1.003064 0.057178 0
0.979998 0.047170 0
0.960091 0.037075 0
0.947708 0.030963 0
1.000000 0.000021 0
0.999942 -0.025682 0
0.999961 -0.054332 0
1.000806 -0.089060 0
1.004324 -0.133679 0
1.014770 -0.192828 0
1.041754 -0.269678 0
1.104852 -0.375185 0
1.268452 -0.391172 0
1.314011 -0.292226 0
1.298922 -0.206527 0
1.278728 -0.151776 0
1.263142 -0.115165 0
1.256735 -0.086405 0
1.261865 -0.055585 0
1.275387 -0.015698 0
1.284304 0.030506 0
1.281170 0.074977 0
1.267195 0.112677 0
1.244147 0.140901 0
1.213808 0.158027 0
1.178349 0.163160 0
1.140532 0.156318 0
1.103249 0.138815 0
1.068008 0.113235 0
1.033403 0.082489 0
0.996572 0.048703 0
0.957296 0.012214 0
0.919261 -0.029843 0
0.891397 -0.075445 0
0.885695 -0.115553 0
0.904949 -0.140280 0
0.945978 -0.140143 0
1.002509 -0.110173 0
1.065294 -0.054204 0
1.121148 0.010871 0
1.157989 0.067045 0
1.177145 0.109540 0
1.183097 0.140385 0
1.178702 0.161516 0
1.166051 0.174375 0
1.146838 0.179882 0
1.122509 0.178563 0
1.094247 0.170741 0
1.062744 0.156856 0
1.027741 0.138050 0
0.987804 0.116752 0
0.941428 0.096147 0
0.889654 0.077618 0
0.837936 0.058152 0
0.794521 0.031527 0
0.765911 -0.007361 0
0.754279 -0.056840 0
0.757481 -0.108215 0
0.771982 -0.152212 0
0.795155 -0.182376 0
0.825549 -0.194596 0
0.862153 -0.186721 0
0.903665 -0.158888 0
0.948153 -0.113902 0
0.992936 -0.057243 0
1.033775 0.002120 0
1.065285 0.054861 0
1.086420 0.096610 0
1.097664 0.126664 0
1.099959 0.145308 0
1.094417 0.153536 0
1.082098 0.152880 0
1.063819 0.145357 0
1.040023 0.133395 0
1.010899 0.119490 0
0.976962 0.105394 0
0.939927 0.091149 0
0.903186 0.074852 0
0.871160 0.053804 0
0.847725 0.026431 0
0.834626 -0.006593 0
0.831160 -0.042481 0
0.835388 -0.077266 0
0.845352 -0.107160 0
0.859616 -0.129307 0
0.877275 -0.141728 0
0.897728 -0.143197 0
0.920441 -0.133292 0
0.944783 -0.112546 0
0.969967 -0.082571 0
0.995019 -0.046056 0
1.018593 -0.006949 0
1.038434 0.030018 0
1.053230 0.061346 0
1.062335 0.085317 0
1.065451 0.101242 0
1.062561 0.109404 0
1.053885 0.110895 0
1.039886 0.107325 0
1.021332 0.100413 0
0.999444 0.091491 0
0.976022 0.081113 0
0.953442 0.069053 0
0.934384 0.053417 0
0.922501 0.043246 0
1.000000 0.000024 0
0.998511 -0.024255 0
0.993975 -0.051757 0
0.986263 -0.086263 0
0.975515 -0.133293 0
0.963207 -0.201981 0
0.955603 -0.306203 0
0.974574 -0.497927 0
1.131818 -0.495875 0
1.113897 -0.277502 0
1.004912 -0.159963 0
0.941657 -0.114486 0
0.896972 -0.091202 0
0.871633 -0.078876 0
0.871085 -0.065193 0
0.895699 -0.032893 0
0.931948 0.020430 0
0.955588 0.077359 0
0.965640 0.125927 0
0.962893 0.163512 0
0.946770 0.188408 0
0.917178 0.199018 0
0.874556 0.194717 0
0.819830 0.177607 0
0.755555 0.153429 0
0.687579 0.128122 0
0.624897 0.101542 0
0.577555 0.067025 0
0.553323 0.017160 0
0.552315 -0.050121 0
0.571254 -0.120914 0
0.607265 -0.173436 0
0.658154 -0.194458 0
0.722138 -0.178953 0
0.796515 -0.129268 0
0.875474 -0.055722 0
0.945810 0.020174 0
0.996520 0.081209 0
1.029483 0.126529 0
1.047904 0.159516 0
1.053775 0.182193 0
1.048737 0.195797 0
1.034108 0.201179 0
1.010616 0.199309 0
0.978018 0.191885 0
0.935191 0.181591 0
0.881663 0.170808 0
0.820626 0.158777 0
0.760724 0.140205 0
0.713271 0.108323 0
0.686118 0.060313 0
0.679767 -0.000008 0
0.687614 -0.064232 0
0.702262 -0.123979 0
0.720065 -0.173391 0
0.740405 -0.208390 0
0.764204 -0.225699 0
0.792658 -0.222901 0
0.826237 -0.199319 0
0.864207 -0.156902 0
0.904765 -0.100367 0
0.945322 -0.036773 0
0.981302 0.024379 0
1.008945 0.075805 0
1.027573 0.115309 0
1.037241 0.142748 0
1.038336 0.158994 0
1.031287 0.165707 0
1.016401 0.165182 0
0.993942 0.159994 0
0.964623 0.152202 0
0.930375 0.142267 0
0.894771 0.128525 0
0.862416 0.108083 0
0.837375 0.078872 0
0.821748 0.041355 0
0.815367 -0.001378 0
0.816403 -0.044916 0
0.822488 -0.085096 0
0.831853 -0.118804 0
0.843527 -0.143897 0
0.857165 -0.158855 0
0.872772 -0.162615 0
0.890399 -0.154676 0
0.909899 -0.135375 0
0.930813 -0.106103 0
0.952389 -0.069336 0
0.973629 -0.028479 0
0.992952 0.012070 0
1.008522 0.048268 0
1.019323 0.077776 0
1.024721 0.099577 0
1.024389 0.113682 0
1.018291 0.120907 0
1.006747 0.122516 0
0.990556 0.119739 0
0.971118 0.113302 0
0.950435 0.103172 0
0.930885 0.088800 0
0.914801 0.068007 0
0.904629 0.054242 0
1.000000 0.000026 0
0.997130 -0.019656 0
0.988118 -0.042083 0
0.971614 -0.070599 0
0.944955 -0.110622 0
0.903356 -0.172917 0
0.838080 -0.281046 0
0.733882 -0.551402 0
0.548414 -0.530496 0
-0.000212 -0.165322 0
0.391966 -0.034290 0
0.315776 -0.043839 0
0.300589 -0.045144 0
0.317515 -0.060519 0
0.341499 -0.079652 0
0.381861 -0.076562 0
0.442164 -0.029384 0
0.504515 0.041285 0
0.548349 0.105373 0
0.573425 0.159771 0
0.576112 0.203743 0
0.554465 0.235374 0
0.509270 0.253666 0
0.445004 0.257816 0
0.372049 0.245486 0
0.306928 0.213148 0
0.266644 0.158727 0
0.260334 0.083787 0
0.285538 -0.004603 0
0.328064 -0.093377 0
0.373076 -0.170504 0
0.417539 -0.227181 0
0.464922 -0.255018 0
0.519970 -0.248536 0
0.585538 -0.207543 0
0.660973 -0.138426 0
0.741158 -0.054003 0
0.812365 0.025865 0
0.865468 0.088998 0
0.901869 0.137222 0
0.923035 0.173541 0
0.929953 0.199548 0
0.923220 0.216685 0
0.902926 0.226831 0
0.869013 0.232281 0
0.822743 0.234405 0
0.769008 0.231317 0
0.717150 0.217086 0
0.677841 0.184973 0
0.657632 0.132758 0
0.656102 0.065030 0
0.667639 -0.008857 0
0.684507 -0.079335 0
0.701379 -0.140667 0
0.716175 -0.190356 0
0.729235 -0.226515 0
0.742548 -0.246850 0
0.758834 -0.248755 0
0.780349 -0.230439 0
0.807827 -0.192432 0
0.840222 -0.138358 0
0.875249 -0.074419 0
0.909827 -0.008764 0
0.939283 0.050337 0
0.961385 0.098366 0
0.975275 0.134544 0
0.980602 0.159487 0
0.977230 0.174812 0
0.965231 0.182701 0
0.945226 0.185172 0
0.918966 0.183056 0
0.889712 0.175246 0
0.861802 0.159109 0
0.839299 0.132248 0
0.824567 0.094472 0
0.817782 0.048439 0
0.817568 -0.001248 0
0.821898 -0.049601 0
0.828775 -0.092715 0
0.836813 -0.128199 0
0.845332 -0.154618 0
0.854301 -0.170972 0
0.864169 -0.176432 0
0.875555 -0.170421 0
0.888901 -0.152963 0
0.904207 -0.125065 0
0.920984 -0.088876 0
0.938361 -0.047517 0
0.955180 -0.004881 0
0.969670 0.034968 0
0.980517 0.069110 0
0.986842 0.096168 0
0.988112 0.115826 0
0.984158 0.128526 0
0.975270 0.135050 0
0.962309 0.136032 0
0.946731 0.131602 0
0.930433 0.121336 0
0.915409 0.104676 0
0.903337 0.079662 0
0.895546 0.063091 0
1.000000 0.000027 0
0.996196 -0.012371 0
0.984145 -0.026240 0
0.961652 -0.043099 0
0.924095 -0.065034 0
0.862224 -0.095107 0
0.756338 -0.136730 0
0.563234 -0.208261 0
0.074148 0.000502 0
-0.527997 0.128385 0
0.000000 0.000021 0
-0.034547 -0.034295 0
-0.055491 -0.092943 0
-0.035268 -0.119787 0
-0.030390 -0.129540 0
-0.017209 -0.133559 0
0.022880 -0.102225 0
0.093400 -0.028826 0
0.164177 0.057019 0
0.211485 0.135750 0
0.230887 0.207368 0
0.224369 0.265860 0
0.199812 0.304178 0
0.168096 0.314828 0
0.144179 0.291506 0
0.141194 0.233527 0
0.164295 0.148135 0
0.209004 0.048130 0
0.259930 -0.050571 0
0.304642 -0.137660 0
0.339969 -0.210391 0
0.367170 -0.265284 0
0.391585 -0.296890 0
0.420745 -0.299571 0
0.461324 -0.270274 0
0.516113 -0.211345 0
0.582803 -0.131220 0
0.654143 -0.043104 0
0.716294 0.037022 0
0.762244 0.101947 0
0.792164 0.154108 0
0.806244 0.195611 0
0.804631 0.228206 0
0.787905 0.253515 0
0.758218 0.272068 0
0.720815 0.281595 0
0.684382 0.276400 0
0.658534 0.249945 0
0.649349 0.199723 0
0.656754 0.130061 0
0.675888 0.050306 0
0.699799 -0.028414 0
0.721961 -0.097973 0
0.739233 -0.155647 0
0.750409 -0.201248 0
0.755942 -0.234764 0
0.757975 -0.255299 0
0.760071 -0.260703 0
0.766211 -0.248313 0
0.779229 -0.216776 0
0.799637 -0.167790 0
0.825687 -0.106380 0
0.854369 -0.039657 0
0.881653 0.024245 0
0.903794 0.079315 0