# vtk DataFile Version 2.0
generated by CFD-lab course output (written by Tobias Neckel) 
ASCII

DATASET STRUCTURED_GRID
DIMENSIONS  101 21 1 
POINTS 2121 float

0.000000 0.000000 0
0.100000 0.000000 0
0.200000 0.000000 0
0.300000 0.000000 0
0.400000 0.000000 0
0.500000 0.000000 0
0.600000 0.000000 0
0.700000 0.000000 0
0.800000 0.000000 0
0.900000 0.000000 0
1.000000 0.000000 0
1.100000 0.000000 0
1.200000 0.000000 0
1.300000 0.000000 0
1.400000 0.000000 0
1.500000 0.000000 0
1.600000 0.000000 0
1.700000 0.000000 0
1.800000 0.000000 0
1.900000 0.000000 0
2.000000 0.000000 0
2.100000 0.000000 0
2.200000 0.000000 0
2.300000 0.000000 0
2.400000 0.000000 0
2.500000 0.000000 0
2.600000 0.000000 0
2.700000 0.000000 0
2.800000 0.000000 0
2.900000 0.000000 0
3.000000 0.000000 0
3.100000 0.000000 0
3.200000 0.000000 0
3.300000 0.000000 0
3.400000 0.000000 0
3.500000 0.000000 0
3.600000 0.000000 0
3.700000 0.000000 0
3.800000 0.000000 0
3.900000 0.000000 0
4.000000 0.000000 0
4.100000 0.000000 0
4.200000 0.000000 0
4.300000 0.000000 0
4.400000 0.000000 0
4.500000 0.000000 0
4.600000 0.000000 0
4.700000 0.000000 0
4.800000 0.000000 0
4.900000 0.000000 0
5.000000 0.000000 0
5.100000 0.000000 0
5.200000 0.000000 0
5.300000 0.000000 0
5.400000 0.000000 0
5.500000 0.000000 0
5.600000 0.000000 0
5.700000 0.000000 0
5.800000 0.000000 0
5.900000 0.000000 0
6.000000 0.000000 0
6.100000 0.000000 0
6.200000 0.000000 0
6.300000 0.000000 0
6.400000 0.000000 0
6.500000 0.000000 0
6.600000 0.000000 0
6.700000 0.000000 0
6.800000 0.000000 0
6.900000 0.000000 0
7.000000 0.000000 0
7.100000 0.000000 0
7.200000 0.000000 0
7.300000 0.000000 0
7.400000 0.000000 0
7.500000 0.000000 0
7.600000 0.000000 0
7.700000 0.000000 0
7.800000 0.000000 0
7.900000 0.000000 0
8.000000 0.000000 0
8.100000 0.000000 0
8.200000 0.000000 0
8.300000 0.000000 0
8.400000 0.000000 0
8.500000 0.000000 0
8.600000 0.000000 0
8.700000 0.000000 0
8.800000 0.000000 0
8.900000 0.000000 0
9.000000 0.000000 0
9.100000 0.000000 0
9.200000 0.000000 0
9.300000 0.000000 0
9.400000 0.000000 0
9.500000 0.000000 0
9.600000 0.000000 0
9.700000 0.000000 0
9.800000 0.000000 0
9.900000 0.000000 0
10.000000 0.000000 0
0.000000 0.100000 0
0.100000 0.100000 0
0.200000 0.100000 0
0.300000 0.100000 0
0.400000 0.100000 0
0.500000 0.100000 0
0.600000 0.100000 0
0.700000 0.100000 0
0.800000 0.100000 0
0.900000 0.100000 0
1.000000 0.100000 0
1.100000 0.100000 0
1.200000 0.100000 0
1.300000 0.100000 0
1.400000 0.100000 0
1.500000 0.100000 0
1.600000 0.100000 0
1.700000 0.100000 0
1.800000 0.100000 0
1.900000 0.100000 0
2.000000 0.100000 0
2.100000 0.100000 0
2.200000 0.100000 0
2.300000 0.100000 0
2.400000 0.100000 0
2.500000 0.100000 0
2.600000 0.100000 0
2.700000 0.100000 0
2.800000 0.100000 0
2.900000 0.100000 0
3.000000 0.100000 0
3.100000 0.100000 0
3.200000 0.100000 0
3.300000 0.100000 0
3.400000 0.100000 0
3.500000 0.100000 0
3.600000 0.100000 0
3.700000 0.100000 0
3.800000 0.100000 0
3.900000 0.100000 0
4.000000 0.100000 0
4.100000 0.100000 0
4.200000 0.100000 0
4.300000 0.100000 0
4.400000 0.100000 0
4.500000 0.100000 0
4.600000 0.100000 0
4.700000 0.100000 0
4.800000 0.100000 0
4.900000 0.100000 0
5.000000 0.100000 0
5.100000 0.100000 0
5.200000 0.100000 0
5.300000 0.100000 0
5.400000 0.100000 0
5.500000 0.100000 0
5.600000 0.100000 0
5.700000 0.100000 0
5.800000 0.100000 0
5.900000 0.100000 0
6.000000 0.100000 0
6.100000 0.100000 0
6.200000 0.100000 0
6.300000 0.100000 0
6.400000 0.100000 0
6.500000 0.100000 0
6.600000 0.100000 0
6.700000 0.100000 0
6.800000 0.100000 0
6.900000 0.100000 0
7.000000 0.100000 0
7.100000 0.100000 0
7.200000 0.100000 0
7.300000 0.100000 0
7.400000 0.100000 0
7.500000 0.100000 0
7.600000 0.100000 0
7.700000 0.100000 0
7.800000 0.100000 0
7.900000 0.100000 0
8.000000 0.100000 0
8.100000 0.100000 0
8.200000 0.100000 0
8.300000 0.100000 0
8.400000 0.100000 0
8.500000 0.100000 0
8.600000 0.100000 0
8.700000 0.100000 0
8.800000 0.100000 0
8.900000 0.100000 0
9.000000 0.100000 0
9.100000 0.100000 0
9.200000 0.100000 0
9.300000 0.100000 0
9.400000 0.100000 0
9.500000 0.100000 0
9.600000 0.100000 0
9.700000 0.100000 0
9.800000 0.100000 0
9.900000 0.100000 0
10.000000 0.100000 0
0.000000 0.200000 0
0.100000 0.200000 0
0.200000 0.200000 0
0.300000 0.200000 0
0.400000 0.200000 0
0.500000 0.200000 0
0.600000 0.200000 0
0.700000 0.200000 0
0.800000 0.200000 0
0.900000 0.200000 0
1.000000 0.200000 0
1.100000 0.200000 0
1.200000 0.200000 0
1.300000 0.200000 0
1.400000 0.200000 0
1.500000 0.200000 0
1.600000 0.200000 0
1.700000 0.200000 0
1.800000 0.200000 0
1.900000 0.200000 0
2.000000 0.200000 0
2.100000 0.200000 0
2.200000 0.200000 0
2.300000 0.200000 0
2.400000 0.200000 0
2.500000 0.200000 0
2.600000 0.200000 0
2.700000 0.200000 0
2.800000 0.200000 0
2.900000 0.200000 0
3.000000 0.200000 0
3.100000 0.200000 0
3.200000 0.200000 0
3.300000 0.200000 0
3.400000 0.200000 0
3.500000 0.200000 0
3.600000 0.200000 0
3.700000 0.200000 0
3.800000 0.200000 0
3.900000 0.200000 0
4.000000 0.200000 0
4.100000 0.200000 0
4.200000 0.200000 0
4.300000 0.200000 0
4.400000 0.200000 0
4.500000 0.200000 0
4.600000 0.200000 0
4.700000 0.200000 0
4.800000 0.200000 0
4.900000 0.200000 0
5.000000 0.200000 0
5.100000 0.200000 0
5.200000 0.200000 0
5.300000 0.200000 0
5.400000 0.200000 0
5.500000 0.200000 0
5.600000 0.200000 0
5.700000 0.200000 0
5.800000 0.200000 0
5.900000 0.200000 0
6.000000 0.200000 0
6.100000 0.200000 0
6.200000 0.200000 0
6.300000 0.200000 0
6.400000 0.200000 0
6.500000 0.200000 0
6.600000 0.200000 0
6.700000 0.200000 0
6.800000 0.200000 0
6.900000 0.200000 0
7.000000 0.200000 0
7.100000 0.200000 0
7.200000 0.200000 0
7.300000 0.200000 0
7.400000 0.200000 0
7.500000 0.200000 0
7.600000 0.200000 0
7.700000 0.200000 0
7.800000 0.200000 0
7.900000 0.200000 0
8.000000 0.200000 0
8.100000 0.200000 0
8.200000 0.200000 0
8.300000 0.200000 0
8.400000 0.200000 0
8.500000 0.200000 0
8.600000 0.200000 0
8.700000 0.200000 0
8.800000 0.200000 0
8.900000 0.200000 0
9.000000 0.200000 0
9.100000 0.200000 0
9.200000 0.200000 0
9.300000 0.200000 0
9.400000 0.200000 0
9.500000 0.200000 0
9.600000 0.200000 0
9.700000 0.200000 0
9.800000 0.200000 0
9.900000 0.200000 0
10.000000 0.200000 0
0.000000 0.300000 0
0.100000 0.300000 0
0.200000 0.300000 0
0.300000 0.300000 0
0.400000 0.300000 0
0.500000 0.300000 0
0.600000 0.300000 0
0.700000 0.300000 0
0.800000 0.300000 0
0.900000 0.300000 0
1.000000 0.300000 0
1.100000 0.300000 0
1.200000 0.300000 0
1.300000 0.300000 0
1.400000 0.300000 0
1.500000 0.300000 0
1.600000 0.300000 0
1.700000 0.300000 0
1.800000 0.300000 0
1.900000 0.300000 0
2.000000 0.300000 0
2.100000 0.300000 0
2.200000 0.300000 0
2.300000 0.300000 0
2.400000 0.300000 0
2.500000 0.300000 0
2.600000 0.300000 0
2.700000 0.300000 0
2.800000 0.300000 0
2.900000 0.300000 0
3.000000 0.300000 0
3.100000 0.300000 0
3.200000 0.300000 0
3.300000 0.300000 0
3.400000 0.300000 0
3.500000 0.300000 0
3.600000 0.300000 0
3.700000 0.300000 0
3.800000 0.300000 0
3.900000 0.300000 0
4.000000 0.300000 0
4.100000 0.300000 0
4.200000 0.300000 0
4.300000 0.300000 0
4.400000 0.300000 0
4.500000 0.300000 0
4.600000 0.300000 0
4.700000 0.300000 0
4.800000 0.300000 0
4.900000 0.300000 0
5.000000 0.300000 0
5.100000 0.300000 0
5.200000 0.300000 0
5.300000 0.300000 0
5.400000 0.300000 0
5.500000 0.300000 0
5.600000 0.300000 0
5.700000 0.300000 0
5.800000 0.300000 0
5.900000 0.300000 0
6.000000 0.300000 0
6.100000 0.300000 0
6.200000 0.300000 0
6.300000 0.300000 0
6.400000 0.300000 0
6.500000 0.300000 0
6.600000 0.300000 0
6.700000 0.300000 0
6.800000 0.300000 0
6.900000 0.300000 0
7.000000 0.300000 0
7.100000 0.300000 0
7.200000 0.300000 0
7.300000 0.300000 0
7.400000 0.300000 0
7.500000 0.300000 0
7.600000 0.300000 0
7.700000 0.300000 0
7.800000 0.300000 0
7.900000 0.300000 0
8.000000 0.300000 0
8.100000 0.300000 0
8.200000 0.300000 0
8.300000 0.300000 0
8.400000 0.300000 0
8.500000 0.300000 0
8.600000 0.300000 0
8.700000 0.300000 0
8.800000 0.300000 0
8.900000 0.300000 0
9.000000 0.300000 0
9.100000 0.300000 0
9.200000 0.300000 0
9.300000 0.300000 0
9.400000 0.300000 0
9.500000 0.300000 0
9.600000 0.300000 0
9.700000 0.300000 0
9.800000 0.300000 0
9.900000 0.300000 0
10.000000 0.300000 0
0.000000 0.400000 0
0.100000 0.400000 0
0.200000 0.400000 0
0.300000 0.400000 0
0.400000 0.400000 0
0.500000 0.400000 0
0.600000 0.400000 0
0.700000 0.400000 0
0.800000 0.400000 0
0.900000 0.400000 0
1.000000 0.400000 0
1.100000 0.400000 0
1.200000 0.400000 0
1.300000 0.400000 0
1.400000 0.400000 0
1.500000 0.400000 0
1.600000 0.400000 0
1.700000 0.400000 0
1.800000 0.400000 0
1.900000 0.400000 0
2.000000 0.400000 0
2.100000 0.400000 0
2.200000 0.400000 0
2.300000 0.400000 0
2.400000 0.400000 0
2.500000 0.400000 0
2.600000 0.400000 0
2.700000 0.400000 0
2.800000 0.400000 0
2.900000 0.400000 0
3.000000 0.400000 0
3.100000 0.400000 0
3.200000 0.400000 0
3.300000 0.400000 0
3.400000 0.400000 0
3.500000 0.400000 0
3.600000 0.400000 0
3.700000 0.400000 0
3.800000 0.400000 0
3.900000 0.400000 0
4.000000 0.400000 0
4.100000 0.400000 0
4.200000 0.400000 0
4.300000 0.400000 0
4.400000 0.400000 0
4.500000 0.400000 0
4.600000 0.400000 0
4.700000 0.400000 0
4.800000 0.400000 0
4.900000 0.400000 0
5.000000 0.400000 0
5.100000 0.400000 0
5.200000 0.400000 0
5.300000 0.400000 0
5.400000 0.400000 0
5.500000 0.400000 0
5.600000 0.400000 0
5.700000 0.400000 0
5.800000 0.400000 0
5.900000 0.400000 0
6.000000 0.400000 0
6.100000 0.400000 0
6.200000 0.400000 0
6.300000 0.400000 0
6.400000 0.400000 0
6.500000 0.400000 0
6.600000 0.400000 0
6.700000 0.400000 0
6.800000 0.400000 0
6.900000 0.400000 0
7.000000 0.400000 0
7.100000 0.400000 0
7.200000 0.400000 0
7.300000 0.400000 0
7.400000 0.400000 0
7.500000 0.400000 0
7.600000 0.400000 0
7.700000 0.400000 0
7.800000 0.400000 0
7.900000 0.400000 0
8.000000 0.400000 0
8.100000 0.400000 0
8.200000 0.400000 0
8.300000 0.400000 0
8.400000 0.400000 0
8.500000 0.400000 0
8.600000 0.400000 0
[...]
POINT_DATA 2121 

VECTORS velocity float
0.500000 0.000000 0
-0.000003 0.000000 0
-0.000013 0.000000 0
-0.000028 0.000000 0
-0.000046 0.000000 0
-0.000065 0.000000 0
-0.000082 0.000000 0
-0.000091 0.000000 0
-0.000085 0.000000 0
-0.000058 0.000000 0
-0.000002 0.000000 0
0.000088 0.000000 0
0.000215 0.000000 0
0.000377 0.000000 0
0.000561 0.000000 0
0.000746 0.000000 0
0.000908 0.000000 0
0.001017 0.000000 0
0.001045 0.000000 0
0.000972 0.000000 0
0.000781 0.000000 0
0.000467 0.000000 0
0.000034 0.000000 0
-0.000504 0.000000 0
-0.001121 0.000000 0
-0.001779 0.000000 0
-0.002415 0.000000 0
-0.002912 0.000000 0
-0.003148 0.000000 0
-0.003026 0.000000 0
-0.002523 0.000000 0
-0.001716 0.000000 0
-0.000744 0.000000 0
0.000279 0.000000 0
0.001258 0.000000 0
0.002118 0.000000 0
0.002817 0.000000 0
0.003333 0.000000 0
0.003658 0.000000 0
0.003791 0.000000 0
0.003734 0.000000 0
0.003487 0.000000 0
0.003052 0.000000 0
0.002422 0.000000 0
0.001588 0.000000 0
0.000534 0.000000 0
-0.000727 0.000000 0
-0.002065 0.000000 0
-0.003384 0.000000 0
-0.004588 0.000000 0
-0.005560 0.000000 0
-0.006167 0.000000 0
-0.006278 0.000000 0
-0.005790 0.000000 0
-0.004685 0.000000 0
-0.003083 0.000000 0
-0.001255 0.000000 0
0.000528 0.000000 0
0.002170 0.000000 0
0.003580 0.000000 0
0.004686 0.000000 0
0.005446 0.000000 0
0.005845 0.000000 0
0.005888 0.000000 0
0.005595 0.000000 0
0.004989 0.000000 0
0.004100 0.000000 0
0.002964 0.000000 0
0.001643 0.000000 0
0.000244 0.000000 0
-0.001028 0.000000 0
-0.002079 0.000000 0
-0.002938 0.000000 0
-0.003648 0.000000 0
-0.004241 0.000000 0
-0.004728 0.000000 0
-0.005084 0.000000 0
-0.005250 0.000000 0
-0.005130 0.000000 0
-0.004622 0.000000 0
-0.003665 0.000000 0
-0.002302 0.000000 0
-0.000706 0.000000 0
0.000958 0.000000 0
0.002604 0.000000 0
0.004130 0.000000 0
0.005418 0.000000 0
0.006348 0.000000 0
0.006805 0.000000 0
0.006705 0.000000 0
0.006034 0.000000 0
0.004882 0.000000 0
0.003438 0.000000 0
0.001946 0.000000 0
0.000654 0.000000 0
-0.000222 0.000000 0
-0.000731 0.000000 0
-0.000991 0.000000 0
-0.001110 0.000000 0
-0.001176 0.000000 0
-0.001328 0.000000 0
1.000000 0.000003 0
1.002616 -0.004756 0
1.010769 -0.010354 0
1.024898 -0.016480 0
1.045477 -0.022928 0
1.072818 -0.029317 0
1.106758 -0.034974 0
1.146245 -0.038967 0
1.189035 -0.040328 0
1.231551 -0.038651 0
1.270448 -0.034397 0
1.303543 -0.028442 0
1.329742 -0.021583 0
1.348619 -0.014370 0
1.360106 -0.007185 0
1.364404 -0.000360 0
1.362006 0.005808 0
1.353705 0.011048 0
1.340584 0.015103 0
1.323985 0.017765 0
1.305433 0.018904 0
1.286543 0.018487 0
1.268909 0.016573 0
1.254010 0.013314 0
1.243123 0.008939 0
1.237265 0.003753 0
1.237082 -0.001737 0
1.242628 -0.006721 0
1.253041 -0.010239 0
1.266384 -0.011467 0
1.279878 -0.010033 0
1.290559 -0.006214 0
1.296055 -0.000779 0
1.295066 0.005431 0
1.287286 0.011698 0
1.273128 0.017448 0
1.253467 0.022299 0
1.229432 0.026032 0
1.202265 0.028543 0
1.173241 0.029794 0
1.143639 0.029776 0
1.114726 0.028487 0
1.087766 0.025920 0
1.064009 0.022045 0
1.044679 0.016790 0
1.030929 0.010071 0
1.023775 0.002033 0
1.024036 -0.006698 0
1.032246 -0.015352 0
1.048486 -0.023273 0
1.072187 -0.029748 0
1.102028 -0.034012 0
1.135937 -0.035331 0
1.171123 -0.033155 0
1.204196 -0.027369 0
1.231516 -0.018579 0
1.249856 -0.008162 0
1.257242 0.002429 0
1.253529 0.012324 0
1.239784 0.021006 0
1.217600 0.028043 0
1.188920 0.033141 0
1.155872 0.036156 0
1.120631 0.037058 0
1.085319 0.035893 0
1.051934 0.032742 0
1.022276 0.027724 0
0.997841 0.021036 0
0.979676 0.013044 0
0.968259 0.004443 0
0.963519 -0.003662 0
0.965017 -0.010489 0
0.972022 -0.015998 0
0.983797 -0.020407 0
0.999704 -0.023929 0
1.019222 -0.026668 0
1.041884 -0.028557 0
1.067112 -0.029319 0
1.094000 -0.028492 0
1.121119 -0.025557 0
1.146457 -0.020197 0
1.167554 -0.012611 0
1.181836 -0.003620 0
1.187225 0.005852 0
1.182962 0.015189 0
1.169462 0.023845 0
1.147776 0.031179 0
1.119573 0.036506 0
1.087082 0.039160 0
1.052961 0.038622 0
1.020039 0.034735 0
0.990914 0.027902 0
0.967503 0.019124 0
0.950719 0.009801 0
0.940428 0.001471 0
0.935766 -0.004627 0
0.935485 -0.008212 0
0.938070 -0.009658 0
0.941974 -0.009232 0
0.945704 -0.005458 0
0.946001 -0.002499 0
1.000000 0.000007 0
1.002933 -0.010778 0
1.011537 -0.022288 0
1.026209 -0.034714 0
1.047644 -0.047926 0
1.076587 -0.061287 0
1.113431 -0.073434 0
1.157527 -0.082285 0
1.206611 -0.085315 0
1.254954 -0.081421 0
1.297928 -0.072000 0
1.333453 -0.059303 0
1.361051 -0.045085 0
1.380787 -0.030373 0
1.392770 -0.015792 0
1.397186 -0.001907 0
1.394537 0.010692 0
1.385608 0.021415 0
1.371528 0.029714 0
1.353741 0.035145 0
1.333900 0.037436 0
1.313754 0.036519 0
1.295018 0.032529 0
1.279258 0.025782 0
1.267827 0.016741 0
1.261858 0.006037 0
1.262278 -0.005367 0
1.269541 -0.015963 0
1.283044 -0.023760 0
1.300684 -0.026842 0
1.319027 -0.024181 0
1.334174 -0.016182 0
1.343004 -0.004512 0
1.344112 0.008763 0
1.337535 0.021931 0
1.324036 0.033812 0
1.304779 0.043689 0
1.281073 0.051195 0
1.254242 0.056183 0
1.225563 0.058619 0
1.196265 0.058508 0
1.167543 0.055867 0
1.140553 0.050712 0
1.116404 0.043082 0
1.096095 0.033075 0
1.080453 0.020898 0
1.070100 0.006888 0
1.065642 -0.008475 0
1.067834 -0.024454 0
1.077156 -0.039945 0
1.093598 -0.053547 0
1.116670 -0.063754 0
1.145458 -0.069099 0
1.178485 -0.068263 0
1.213403 -0.060398 0
1.246830 -0.045666 0
1.274583 -0.025732 0
1.292567 -0.003678 0
1.298533 0.017452 0
1.293182 0.035923 0
1.278247 0.050858 0
1.255799 0.061721 0
1.228051 0.068283 0
1.197206 0.070547 0
1.165339 0.068690 0
1.134294 0.063037 0
1.105577 0.054087 0
1.080259 0.042594 0
1.058922 0.029577 0
1.041711 0.016152 0
1.028597 0.003237 0
1.019737 -0.008506 0
1.015140 -0.018782 0
1.014642 -0.027684 0
1.018133 -0.035426 0
1.025677 -0.042179 0
1.037507 -0.047888 0
1.053819 -0.052113 0
1.074462 -0.054003 0
1.098686 -0.052452 0
1.125043 -0.046429 0
1.151382 -0.035372 0
1.174912 -0.019664 0
1.192511 -0.001118 0
1.201731 0.017772 0
1.202074 0.035195 0
1.194295 0.049897 0
1.179706 0.060703 0
1.160016 0.066621 0
1.137107 0.067052 0
1.112787 0.062056 0
1.088587 0.052543 0
1.065652 0.040203 0
1.044746 0.027083 0
1.026349 0.014960 0
1.010856 0.004950 0
0.998533 -0.002297 0
0.989146 -0.006482 0
0.982134 -0.007628 0
0.976852 -0.004021 0
0.973106 -0.000956 0
1.000000 0.000011 0
1.002527 -0.016299 0
1.010295 -0.033632 0
1.023984 -0.052590 0
1.044788 -0.073309 0
1.074300 -0.095107 0
1.114135 -0.115917 0
1.164797 -0.132150 0
1.225125 -0.137759 0
1.282541 -0.129971 0
1.329999 -0.112899 0
1.366742 -0.091569 0
1.394115 -0.068919 0
1.413267 -0.046092 0
1.424489 -0.023587 0
1.427679 -0.002130 0
1.423171 0.017383 0
1.411651 0.034055 0
1.394331 0.046969 0
1.372846 0.055391 0
1.349095 0.058889 0
1.325078 0.057368 0
1.302734 0.051068 0
1.283791 0.040504 0
1.269674 0.026337 0
1.261593 0.009300 0
1.260831 -0.009422 0
1.268614 -0.027489 0
1.284898 -0.041384 0
1.307547 -0.047453 0
1.332391 -0.043526 0
1.354069 -0.030194 0
1.367766 -0.010720 0
1.371288 0.010898 0
1.365286 0.031771 0
1.351283 0.050201 0
1.331020 0.065259 0
1.306163 0.076566 0
1.278177 0.084052 0
1.248340 0.087768 0
1.217794 0.087793 0
1.187600 0.084197 0
1.158765 0.077058 0
1.132245 0.066502 0
1.108903 0.052739 0
1.089453 0.036064 0
1.074397 0.016842 0
1.064002 -0.004435 0
1.058439 -0.026867 0
1.058033 -0.049038 0
1.063147 -0.069264 0
1.074384 -0.085874 0
1.092563 -0.097148 0
1.118094 -0.101102 0
1.150168 -0.095716 0
1.186319 -0.079761 0
1.222447 -0.053901 0
1.253314 -0.021523 0
1.273739 0.011706 0
1.281454 0.041290 0
1.277897 0.065424 0
1.265120 0.083334 0
1.245336 0.094746 0
1.220728 0.099768 0
1.193305 0.098803 0
1.164797 0.092502 0
1.136590 0.081756 0
1.109715 0.067688 0
1.084903 0.051590 0
1.062644 0.034767 0
1.043165 0.018311 0
1.026384 0.002967 0
1.012147 -0.010904 0
1.000445 -0.023401 0
0.991826 -0.034963 0
0.987369 -0.046041 0
0.988347 -0.056698 0
0.995746 -0.066273 0
1.009785 -0.073357 0
1.029805 -0.076136 0
1.054435 -0.072891 0
1.081830 -0.062478 0
1.109816 -0.044746 0
1.135879 -0.020965 0
1.157018 0.005627 0
1.170765 0.031282 0
1.176802 0.053548 0
1.175682 0.070785 0
1.168343 0.081759 0
1.155884 0.085852 0
1.139397 0.083255 0
1.119915 0.075037 0
1.098458 0.062965 0
1.076096 0.049103 0
1.053896 0.035360 0
1.032702 0.023188 0
1.013026 0.013496 0
0.995284 0.006740 0
0.979897 0.003060 0
0.967417 0.003568 0
0.960159 0.004524 0
1.000000 0.000015 0
1.001989 -0.021078 0
1.008269 -0.043746 0
1.019801 -0.069209 0
1.038389 -0.098244 0
1.066859 -0.130636 0
1.109047 -0.163934 0
1.168359 -0.193279 0
1.249387 -0.203063 0
1.318155 -0.186298 0
1.366421 -0.156204 0
1.399431 -0.123421 0
1.422742 -0.091613 0
1.439350 -0.060749 0
1.449454 -0.030207 0
1.451669 -0.000591 0
1.445329 0.026718 0
1.430794 0.050253 0
1.409380 0.068517 0
1.383009 0.080379 0
1.353929 0.085204 0
1.324518 0.082879 0
1.297068 0.073814 0
1.273527 0.058841 0
1.255295 0.038937 0
1.243271 0.014878 0
1.238286 -0.012391 0
1.242320 -0.040032 0
1.256737 -0.062696 0
1.280584 -0.074338 0
1.310650 -0.070706 0
1.341350 -0.051561 0
1.365330 -0.021734 0
1.376394 0.011240 0
1.374172 0.041932 0
1.361582 0.068075 0
1.341436 0.088807 0
1.316033 0.104036 0
1.287137 0.114004 0
1.256109 0.118999 0
1.224065 0.119246 0
1.192001 0.114893 0
1.160864 0.106064 0
1.131573 0.092942 0
1.104959 0.075865 0
1.081550 0.055403 0
1.061245 0.032338 0
1.043154 0.007481 0
1.026090 -0.018487 0
1.009999 -0.044655 0
0.997100 -0.069900 0
0.990766 -0.093173 0
0.994391 -0.112810 0
1.009807 -0.125870 0
1.036621 -0.128625 0
1.072553 -0.117947 0
1.113917 -0.092729 0
1.155857 -0.054972 0
1.192470 -0.010690 0
1.217752 0.031762 0
1.230183 0.067189 0
1.231411 0.094279 0
1.223444 0.112672 0
1.208364 0.122575 0
1.188143 0.124619 0
1.164533 0.119750 0
1.139010 0.109167 0
1.112766 0.094279 0
1.086689 0.076646 0
1.061302 0.057888 0
1.036696 0.039496 0
1.012633 0.022511 0
0.989033 0.007156 0
0.966598 -0.007362 0
0.947039 -0.022349 0
0.932902 -0.038699 0
0.926504 -0.056264 0
0.928861 -0.073550 0
0.939585 -0.088061 0
0.957388 -0.097102 0
0.980611 -0.098453 0
1.007523 -0.090751 0
1.036409 -0.073713 0
1.065519 -0.048320 0
1.092831 -0.017114 0
1.115524 0.015411 0
1.131577 0.044980 0
1.140720 0.069161 0
1.143163 0.086418 0
1.139386 0.095996 0
1.130016 0.098023 0
1.115803 0.093480 0
1.097640 0.084019 0
1.076539 0.071642 0
1.053528 0.058352 0
1.029541 0.045816 0
1.005449 0.035118 0
0.982242 0.026644 0
0.961257 0.020236 0
0.944194 0.015713 0
0.934641 0.013007 0
1.000000 0.000019 0
1.001153 -0.024572 0
1.004935 -0.051446 0
1.012409 -0.082712 0
1.025786 -0.120369 0
1.049152 -0.165767 0
1.089564 -0.217420 0
1.156703 -0.272493 0
1.273480 -0.287558 0
1.346383 -0.247008 0
1.379926 -0.194179 0
1.396367 -0.147893 0
1.407186 -0.108840 0
1.417282 -0.072805 0
1.426355 -0.035909 0
1.429732 0.001993 0
1.423593 0.038257 0
1.407692 0.070003 0
1.383436 0.094753 0
1.352985 0.110841 0
1.318859 0.117378 0
1.283803 0.114227 0
1.250542 0.102058 0
1.221260 0.082275 0
1.197064 0.056592 0
1.177958 0.026308 0
1.163271 -0.008474 0
1.153391 -0.045943 0
1.153151 -0.079649 0
1.165636 -0.101369 0
1.191885 -0.104296 0
1.229036 -0.084877 0
1.269248 -0.045767 0
1.301036 0.002053 0
1.315538 0.046579 0
1.315162 0.082934 0
1.304207 0.110805 0
1.285772 0.130862 0
1.262022 0.143974 0
1.234521 0.150838 0
1.204507 0.151899 0
1.173061 0.147396 0
1.141207 0.137484 0
1.109927 0.122405 0
1.080004 0.102760 0
1.051524 0.079776 0
1.023233 0.055236 0
0.992765 0.030719 0
0.958664 0.006286 0
0.922867 -0.020051 0
0.891440 -0.050034 0
0.872092 -0.083168 0
0.868627 -0.116191 0
0.880603 -0.143334 0
0.905667 -0.158464 0
0.940981 -0.157060 0
0.983530 -0.137208 0
1.029942 -0.100079 0
1.076131 -0.050191 0
1.116506 0.003575 0
1.145332 0.051762 0
1.162120 0.090070 0
1.168170 0.117790 0
1.165124 0.135066 0
1.154703 0.142631 0
1.138545 0.141633 0
1.118101 0.133520 0
1.094520 0.120007 0
1.068529 0.103053 0
1.040346 0.084759 0
1.009898 0.066979 0
0.977487 0.050629 0
0.944612 0.035130 0
0.914191 0.018593 0
0.889666 -0.001268 0
0.873737 -0.025505 0
0.867637 -0.052656 0
0.870854 -0.079353 0
0.881873 -0.101883 0
0.899004 -0.117162 0
0.920757 -0.123026 0
0.945852 -0.118276 0
0.973125 -0.102744 0
1.001416 -0.077388 0
1.029457 -0.044379 0
1.055558 -0.007465 0
1.077068 0.028351 0
1.092611 0.059197 0
1.101759 0.083090 0
1.104457 0.098996 0
1.100917 0.106835 0
1.091560 0.107408 0
1.076987 0.102224 0
1.057935 0.093210 0
1.035250 0.082353 0
1.009950 0.071261 0
0.983373 0.060790 0
0.957299 0.050927 0
0.933908 0.041103 0
0.915484 0.030178 0
0.905238 0.022953 0
1.000000 0.000023 0
0.999965 -0.026017 0
1.000064 -0.055004 0
1.001051 -0.090062 0
1.004781 -0.134989 0
1.015528 -0.194417 0
1.042939 -0.271487 0
1.106648 -0.377199 0
1.271247 -0.392746 0
1.317246 -0.292747 0
1.302598 -0.206190 0
1.283364 -0.150684 0
1.270055 -0.112530 0
1.267329 -0.079921 0
1.275502 -0.042659 0
1.286621 0.002169 0
1.287201 0.048757 0
1.276259 0.090409 0
1.255340 0.123222 0
1.226256 0.144955 0
1.191201 0.154384 0
1.152975 0.151195 0
1.114743 0.136356 0
1.078726 0.112317 0
1.044429 0.082237 0
1.009336 0.048669 0
0.972702 0.012175 0
0.937354 -0.029914 0
0.911784 -0.074944 0
0.908246 -0.113074 0
0.929753 -0.134109 0
0.972839 -0.128927 0
1.030322 -0.093736 0
1.091443 -0.035053 0
1.141710 0.027803 0
1.171830 0.079403 0
1.185864 0.118193 0
1.187868 0.146219 0
1.180428 0.165253 0
1.165420 0.176512 0
1.144377 0.180704 0
1.118626 0.178191 0
1.089243 0.169196 0
1.056761 0.154143 0
1.020665 0.134266 0
0.979296 0.112172 0
0.931306 0.091095 0
0.878473 0.072048 0
0.827105 0.051410 0
0.785551 0.022568 0
0.759707 -0.019127 0
0.751002 -0.070362 0
0.756858 -0.121324 0
0.773837 -0.162913 0
0.799559 -0.189005 0
0.832668 -0.195812 0
0.872028 -0.181693 0
0.916058 -0.147576 0
0.962463 -0.097257 0
1.008059 -0.037442 0
1.047352 0.021572 0
1.076038 0.071439 0
1.094073 0.109665 0
1.102230 0.136040 0
1.101630 0.151195 0
1.093477 0.156349 0
1.078843 0.153190 0
1.058480 0.143849 0
1.032711 0.130819 0
1.001667 0.116517 0
0.966011 0.102354 0
0.927874 0.087796 0
0.891130 0.070451 0
0.860408 0.047583 0
0.839294 0.018104 0
0.828835 -0.016671 0
0.827784 -0.053381 0
0.833992 -0.087786 0
0.845549 -0.116211 0
0.861154 -0.135986 0
0.880009 -0.145303 0
0.901556 -0.143121 0
0.925234 -0.129278 0
0.950346 -0.104655 0
0.976020 -0.071258 0
1.001170 -0.032203 0
1.024037 0.007924 0
1.042409 0.044467 0
1.055294 0.074567 0
1.062162 0.096833 0
1.062815 0.110915 0
1.057308 0.117404 0
1.045907 0.117639 0
1.029099 0.113374 0
1.007681 0.106329 0
0.982919 0.097686 0
0.956647 0.087761 0
0.931178 0.076103 0
0.908949 0.062044 0
0.892057 0.044376 0
0.882556 0.032690 0
1.000000 0.000026 0
0.998528 -0.024640 0
0.994054 -0.052534 0
0.986453 -0.087431 0
0.975875 -0.134849 0
0.963817 -0.203927 0
0.956585 -0.308542 0
0.976130 -0.500803 0
1.134274 -0.498158 0
1.116439 -0.278361 0
1.007533 -0.160299 0
0.944521 -0.115352 0
0.902291 -0.092808 0
0.884123 -0.078255 0
0.893390 -0.055202 0
0.922622 -0.009708 0
0.949063 0.048617 0
0.960624 0.101863 0
0.959174 0.144754 0
0.944301 0.174978 0
0.915631 0.190658 0
0.873339 0.190684 0
0.818428 0.176306 0
0.753727 0.152587 0
0.685519 0.125979 0
0.623225 0.098033 0
0.576920 0.063507 0
0.554048 0.014972 0
0.554535 -0.050544 0
0.575365 -0.119340 0
0.613984 -0.168891 0
0.668181 -0.185449 0
0.735772 -0.164374 0
0.813218 -0.109338 0
0.892745 -0.033811 0
0.959391 0.038777 0
1.005303 0.094765 0
1.034389 0.136295 0
1.049473 0.166420 0
1.052462 0.186887 0
1.044902 0.198690 0
1.027977 0.202528 0
1.002200 0.199347 0
0.967050 0.190981 0
0.921239 0.180223 0
0.864652 0.169133 0
0.801535 0.156057 0
0.741724 0.134919 0
0.696806 0.099207 0
0.673685 0.047346 0
0.671232 -0.015487 0
0.681509 -0.080320 0
0.697592 -0.139028 0
0.716609 -0.186037 0
0.738491 -0.217297 0
0.764413 -0.229532 0
0.795495 -0.220600 0
0.831875 -0.190516 0
0.872402 -0.142195 0
0.914892 -0.081317 0
0.956177 -0.016221 0
0.990829 0.043346 0
1.016377 0.091595 0
1.032525 0.127505 0
1.039564 0.151383 0
1.037998 0.164418 0
1.028285 0.168515 0
1.010707 0.166137 0
0.985556 0.159864 0
0.953764 0.151458 0
0.917728 0.140771 0
0.881551 0.125509 0
0.850070 0.102595 0
0.827081 0.070429 0
0.814053 0.030305 0
0.810199 -0.013997 0
0.813203 -0.057814 0
0.820676 -0.097119 0
0.831032 -0.129046 0
0.843505 -0.151623 0
0.857917 -0.163430 0
0.874354 -0.163503 0
0.892853 -0.151537 0
0.913175 -0.128177 0
0.934744 -0.095206 0
0.956697 -0.055486 0
0.977896 -0.012894 0
0.996357 0.027934 0
1.010538 0.063332 0
1.019534 0.091469 0
1.022799 0.111681 0
1.020075 0.124309 0
1.011390 0.130426 0
0.997140 0.131428 0
0.978231 0.128524 0
0.956185 0.122287 0
0.933076 0.112522 0
0.911217 0.098617 0
0.892693 0.080215 0
0.878968 0.056562 0
0.871099 0.041110 0
1.000000 0.000028 0
0.997137 -0.020074 0
0.988160 -0.042931 0
0.971718 -0.071884 0
0.945155 -0.112355 0
0.903700 -0.175129 0
0.838651 -0.283802 0
0.734847 -0.554890 0
0.549609 -0.533058 0
-0.000297 -0.166009 0
0.392817 -0.034275 0
0.316493 -0.045444 0
0.304815 -0.052134 0
0.328944 -0.071022 0
0.363139 -0.081160 0
0.412556 -0.053506 0
0.471643 0.010753 0
0.517013 0.080297 0
0.544082 0.139544 0
0.549857 0.188497 0
0.531489 0.225345 0
0.488445 0.248396 0
0.425151 0.255966 0
0.352229 0.245224 0
0.286154 0.212738 0
0.244354 0.157265 0
0.236958 0.081349 0
0.262385 -0.007531 0
0.306611 -0.096263 0
0.354478 -0.172526 0
0.402673 -0.226928 0
0.454537 -0.250718 0
0.514597 -0.238776 0
0.585279 -0.192028 0
0.665285 -0.118373 0
0.747365 -0.033158 0
0.816558 0.043193 0
0.866651 0.102046 0
0.900144 0.147178 0
0.918415 0.181081 0
0.922373 0.205187 0
0.912483 0.220891 0
0.888700 0.230122 0
0.851036 0.235102 0
0.801358 0.236662 0
0.745731 0.231875 0
0.694546 0.214022 0
0.658409 0.176775 0
0.642590 0.119446 0
0.645129 0.048139 0
0.659340 -0.026953 0
0.677285 -0.096724 0
0.694312 -0.156426 0
0.709030 -0.203814 0
0.722391 -0.236812 0
0.736834 -0.252819 0
0.755222 -0.249157 0
0.779545 -0.224486 0
0.809993 -0.180276 0
0.844983 -0.121219 0
0.881858 -0.054368 0
0.916733 0.011236 0
0.945090 0.067966 0
0.965402 0.112850 0
0.977058 0.145720 0
0.979838 0.167627 0
0.973681 0.180479 0
0.958772 0.186575 0
0.935990 0.187759 0
0.907554 0.184344 0
0.877261 0.174566 0
0.849745 0.155453 0
0.828882 0.124920 0
0.816451 0.083599 0
0.811993 0.034985 0
0.813731 -0.015822 0
0.819398 -0.063860 0
0.827050 -0.105616 0
0.835473 -0.139041 0
0.844201 -0.162874 0
0.853418 -0.176154 0
0.863720 -0.178060 0
0.875768 -0.168103 0
0.889918 -0.146550 0
0.906012 -0.114785 0
0.923398 -0.075361 0
0.941080 -0.031743 0
0.957633 0.011818 0
0.971251 0.051382 0
0.980759 0.084564 0
0.985362 0.110365 0
0.984607 0.128804 0
0.978418 0.140563 0
0.967214 0.146522 0
0.952015 0.147274 0
0.934421 0.142831 0
0.916387 0.132719 0
0.899816 0.116475 0
0.886167 0.094282 0
0.876239 0.065959 0
0.870448 0.047652 0
1.000000 0.000029 0
0.996192 -0.012803 0
0.984142 -0.027115 0
0.961653 -0.044429 0
0.924099 -0.066834 0
0.862224 -0.097425 0
0.756292 -0.139692 0
0.563051 -0.211764 0
0.073957 0.000447 0
-0.528638 0.130289 0
0.000000 0.000036 0
-0.034427 -0.038623 0
-0.056290 -0.105261 0
-0.030109 -0.136580 0
-0.019952 -0.138815 0
0.000327 -0.118214 0
0.048908 -0.055842 0
0.113172 0.029423 0
0.162969 0.111909 0
0.188304 0.187569 0
0.186943 0.252068 0
0.163806 0.297020 0
0.133039 0.312521 0
0.109652 0.291583 0
0.106694 0.233851 0
0.129691 0.147226 0
0.174628 0.045474 0
0.226126 -0.054683 0
0.271946 -0.142640 0
0.308996 -0.215405 0
0.338731 -0.268953 0
0.366757 -0.297375 0
0.400640 -0.295119 0
0.446630 -0.260030 0
0.506746 -0.195900 0
0.577857 -0.112498 0
0.650827 -0.024524 0
0.711407 0.052707 0
0.755069 0.114654 0
0.782277 0.164657 0
0.793235 0.204620 0
0.788130 0.236199 0
0.767801 0.260792 0
0.735088 0.278321 0
0.696309 0.285526 0
0.661049 0.275943 0
0.638823 0.243378 0
0.634476 0.186873 0
0.646408 0.112486 0
0.668824 0.030594 0
0.693942 -0.047646 0
0.715937 -0.115294 0
0.732198 -0.170776 0
0.742003 -0.214118 0
0.746367 -0.245103 0
0.748048 -0.262366 0
0.751074 -0.263314 0
0.759456 -0.245289 0
0.775533 -0.207636 0
0.799051 -0.153185 0
0.827619 -0.087974 0
0.857819 -0.019889 0
0.884967 0.042924 0
0.906002 0.095535 0
0.919495 0.136944 0