# vtk DataFile Version 2.0
generated by CFD-lab course output (written by Tobias Neckel) 
ASCII

DATASET STRUCTURED_GRID
DIMENSIONS  101 21 1 
POINTS 2121 float

0.000000 0.000000 0
0.100000 0.000000 0
0.200000 0.000000 0
0.300000 0.000000 0
0.400000 0.000000 0
0.500000 0.000000 0
0.600000 0.000000 0
0.700000 0.000000 0
0.800000 0.000000 0
0.900000 0.000000 0
1.000000 0.000000 0
1.100000 0.000000 0
1.200000 0.000000 0
1.300000 0.000000 0
1.400000 0.000000 0
1.500000 0.000000 0
1.600000 0.000000 0
1.700000 0.000000 0
1.800000 0.000000 0
1.900000 0.000000 0
2.000000 0.000000 0
2.100000 0.000000 0
2.200000 0.000000 0
2.300000 0.000000 0
2.400000 0.000000 0
2.500000 0.000000 0
2.600000 0.000000 0
2.700000 0.000000 0
2.800000 0.000000 0
2.900000 0.000000 0
3.000000 0.000000 0
3.100000 0.000000 0
3.200000 0.000000 0
3.300000 0.000000 0
3.400000 0.000000 0
3.500000 0.000000 0
3.600000 0.000000 0
3.700000 0.000000 0
3.800000 0.000000 0
3.900000 0.000000 0
4.000000 0.000000 0
4.100000 0.000000 0
4.200000 0.000000 0
4.300000 0.000000 0
4.400000 0.000000 0
4.500000 0.000000 0
4.600000 0.000000 0
4.700000 0.000000 0
4.800000 0.000000 0
4.900000 0.000000 0
5.000000 0.000000 0
5.100000 0.000000 0
5.200000 0.000000 0
5.300000 0.000000 0
5.400000 0.000000 0
5.500000 0.000000 0
5.600000 0.000000 0
5.700000 0.000000 0
5.800000 0.000000 0
5.900000 0.000000 0
6.000000 0.000000 0
6.100000 0.000000 0
6.200000 0.000000 0
6.300000 0.000000 0
6.400000 0.000000 0
6.500000 0.000000 0
6.600000 0.000000 0
6.700000 0.000000 0
6.800000 0.000000 0
6.900000 0.000000 0
7.000000 0.000000 0
7.100000 0.000000 0
7.200000 0.000000 0
7.300000 0.000000 0
7.400000 0.000000 0
7.500000 0.000000 0
7.600000 0.000000 0
7.700000 0.000000 0
7.800000 0.000000 0
7.900000 0.000000 0
8.000000 0.000000 0
8.100000 0.000000 0
8.200000 0.000000 0
8.300000 0.000000 0
8.400000 0.000000 0
8.500000 0.000000 0
8.600000 0.000000 0
8.700000 0.000000 0
8.800000 0.000000 0
8.900000 0.000000 0
9.000000 0.000000 0
9.100000 0.000000 0
9.200000 0.000000 0
9.300000 0.000000 0
9.400000 0.000000 0
9.500000 0.000000 0
9.600000 0.000000 0
9.700000 0.000000 0
9.800000 0.000000 0
9.900000 0.000000 0
10.000000 0.000000 0
0.000000 0.100000 0
0.100000 0.100000 0
0.200000 0.100000 0
0.300000 0.100000 0
0.400000 0.100000 0
0.500000 0.100000 0
0.600000 0.100000 0
0.700000 0.100000 0
0.800000 0.100000 0
0.900000 0.100000 0
1.000000 0.100000 0
1.100000 0.100000 0
1.200000 0.100000 0
1.300000 0.100000 0
1.400000 0.100000 0
1.500000 0.100000 0
1.600000 0.100000 0
1.700000 0.100000 0
1.800000 0.100000 0
1.900000 0.100000 0
2.000000 0.100000 0
2.100000 0.100000 0
2.200000 0.100000 0
2.300000 0.100000 0
2.400000 0.100000 0
2.500000 0.100000 0
2.600000 0.100000 0
2.700000 0.100000 0
2.800000 0.100000 0
2.900000 0.100000 0
3.000000 0.100000 0
3.100000 0.100000 0
3.200000 0.100000 0
3.300000 0.100000 0
3.400000 0.100000 0
3.500000 0.100000 0
3.600000 0.100000 0
3.700000 0.100000 0
3.800000 0.100000 0
3.900000 0.100000 0
4.000000 0.100000 0
4.100000 0.100000 0
4.200000 0.100000 0
4.300000 0.100000 0
4.400000 0.100000 0
4.500000 0.100000 0
4.600000 0.100000 0
4.700000 0.100000 0
4.800000 0.100000 0
4.900000 0.100000 0
5.000000 0.100000 0
5.100000 0.100000 0
5.200000 0.100000 0
5.300000 0.100000 0
5.400000 0.100000 0
5.500000 0.100000 0
5.600000 0.100000 0
5.700000 0.100000 0
5.800000 0.100000 0
5.900000 0.100000 0
6.000000 0.100000 0
6.100000 0.100000 0
6.200000 0.100000 0
6.300000 0.100000 0
6.400000 0.100000 0
6.500000 0.100000 0
6.600000 0.100000 0
6.700000 0.100000 0
6.800000 0.100000 0
6.900000 0.100000 0
7.000000 0.100000 0
7.100000 0.100000 0
7.200000 0.100000 0
7.300000 0.100000 0
7.400000 0.100000 0
7.500000 0.100000 0
7.600000 0.100000 0
7.700000 0.100000 0
7.800000 0.100000 0
7.900000 0.100000 0
8.000000 0.100000 0
8.100000 0.100000 0
8.200000 0.100000 0
8.300000 0.100000 0
8.400000 0.100000 0
8.500000 0.100000 0
8.600000 0.100000 0
8.700000 0.100000 0
8.800000 0.100000 0
8.900000 0.100000 0
9.000000 0.100000 0
9.100000 0.100000 0
9.200000 0.100000 0
9.300000 0.100000 0
9.400000 0.100000 0
9.500000 0.100000 0
9.600000 0.100000 0
9.700000 0.100000 0
9.800000 0.100000 0
9.900000 0.100000 0
10.000000 0.100000 0
0.000000 0.200000 0
0.100000 0.200000 0
0.200000 0.200000 0
0.300000 0.200000 0
0.400000 0.200000 0
0.500000 0.200000 0
0.600000 0.200000 0
0.700000 0.200000 0
0.800000 0.200000 0
0.900000 0.200000 0
1.000000 0.200000 0
1.100000 0.200000 0
1.200000 0.200000 0
1.300000 0.200000 0
1.400000 0.200000 0
1.500000 0.200000 0
1.600000 0.200000 0
1.700000 0.200000 0
1.800000 0.200000 0
1.900000 0.200000 0
2.000000 0.200000 0
2.100000 0.200000 0
2.200000 0.200000 0
2.300000 0.200000 0
2.400000 0.200000 0
2.500000 0.200000 0
2.600000 0.200000 0
2.700000 0.200000 0
2.800000 0.200000 0
2.900000 0.200000 0
3.000000 0.200000 0
3.100000 0.200000 0
3.200000 0.200000 0
3.300000 0.200000 0
3.400000 0.200000 0
3.500000 0.200000 0
3.600000 0.200000 0
3.700000 0.200000 0
3.800000 0.200000 0
3.900000 0.200000 0
4.000000 0.200000 0
4.100000 0.200000 0
4.200000 0.200000 0
4.300000 0.200000 0
4.400000 0.200000 0
4.500000 0.200000 0
4.600000 0.200000 0
4.700000 0.200000 0
4.800000 0.200000 0
4.900000 0.200000 0
5.000000 0.200000 0
5.100000 0.200000 0
5.200000 0.200000 0
5.300000 0.200000 0
5.400000 0.200000 0
5.500000 0.200000 0
5.600000 0.200000 0
5.700000 0.200000 0
5.800000 0.200000 0
5.900000 0.200000 0
6.000000 0.200000 0
6.100000 0.200000 0
6.200000 0.200000 0
6.300000 0.200000 0
6.400000 0.200000 0
6.500000 0.200000 0
6.600000 0.200000 0
6.700000 0.200000 0
6.800000 0.200000 0
6.900000 0.200000 0
7.000000 0.200000 0
7.100000 0.200000 0
7.200000 0.200000 0
7.300000 0.200000 0
7.400000 0.200000 0
7.500000 0.200000 0
7.600000 0.200000 0
7.700000 0.200000 0
7.800000 0.200000 0
7.900000 0.200000 0
8.000000 0.200000 0
8.100000 0.200000 0
8.200000 0.200000 0
8.300000 0.200000 0
8.400000 0.200000 0
8.500000 0.200000 0
8.600000 0.200000 0
8.700000 0.200000 0
8.800000 0.200000 0
8.900000 0.200000 0
9.000000 0.200000 0
9.100000 0.200000 0
9.200000 0.200000 0
9.300000 0.200000 0
9.400000 0.200000 0
9.500000 0.200000 0
9.600000 0.200000 0
9.700000 0.200000 0
9.800000 0.200000 0
9.900000 0.200000 0
10.000000 0.200000 0
0.000000 0.300000 0
0.100000 0.300000 0
0.200000 0.300000 0
0.300000 0.300000 0
0.400000 0.300000 0
0.500000 0.300000 0
0.600000 0.300000 0
0.700000 0.300000 0
0.800000 0.300000 0
0.900000 0.300000 0
1.000000 0.300000 0
1.100000 0.300000 0
1.200000 0.300000 0
1.300000 0.300000 0
1.400000 0.300000 0
1.500000 0.300000 0
1.600000 0.300000 0
1.700000 0.300000 0
1.800000 0.300000 0
1.900000 0.300000 0
2.000000 0.300000 0
2.100000 0.300000 0
2.200000 0.300000 0
2.300000 0.300000 0
2.400000 0.300000 0
2.500000 0.300000 0
2.600000 0.300000 0
2.700000 0.300000 0
2.800000 0.300000 0
2.900000 0.300000 0
3.000000 0.300000 0
3.100000 0.300000 0
3.200000 0.300000 0
3.300000 0.300000 0
3.400000 0.300000 0
3.500000 0.300000 0
3.600000 0.300000 0
3.700000 0.300000 0
3.800000 0.300000 0
3.900000 0.300000 0
4.000000 0.300000 0
4.100000 0.300000 0
4.200000 0.300000 0
4.300000 0.300000 0
4.400000 0.300000 0
4.500000 0.300000 0
4.600000 0.300000 0
4.700000 0.300000 0
4.800000 0.300000 0
4.900000 0.300000 0
5.000000 0.300000 0
5.100000 0.300000 0
5.200000 0.300000 0
5.300000 0.300000 0
5.400000 0.300000 0
5.500000 0.300000 0
5.600000 0.300000 0
5.700000 0.300000 0
5.800000 0.300000 0
5.900000 0.300000 0
6.000000 0.300000 0
6.100000 0.300000 0
6.200000 0.300000 0
6.300000 0.300000 0
6.400000 0.300000 0
6.500000 0.300000 0
6.600000 0.300000 0
6.700000 0.300000 0
6.800000 0.300000 0
6.900000 0.300000 0
7.000000 0.300000 0
7.100000 0.300000 0
7.200000 0.300000 0
7.300000 0.300000 0
7.400000 0.300000 0
7.500000 0.300000 0
7.600000 0.300000 0
7.700000 0.300000 0
7.800000 0.300000 0
7.900000 0.300000 0
8.000000 0.300000 0
8.100000 0.300000 0
8.200000 0.300000 0
8.300000 0.300000 0
8.400000 0.300000 0
8.500000 0.300000 0
8.600000 0.300000 0
8.700000 0.300000 0
8.800000 0.300000 0
8.900000 0.300000 0
9.000000 0.300000 0
9.100000 0.300000 0
9.200000 0.300000 0
9.300000 0.300000 0
9.400000 0.300000 0
9.500000 0.300000 0
9.600000 0.300000 0
9.700000 0.300000 0
9.800000 0.300000 0
9.900000 0.300000 0
10.000000 0.300000 0
0.000000 0.400000 0
0.100000 0.400000 0
0.200000 0.400000 0
0.300000 0.400000 0
0.400000 0.400000 0
0.500000 0.400000 0
0.600000 0.400000 0
0.700000 0.400000 0
0.800000 0.400000 0
0.900000 0.400000 0
1.000000 0.400000 0
1.100000 0.400000 0
1.200000 0.400000 0
1.300000 0.400000 0
1.400000 0.400000 0
1.500000 0.400000 0
1.600000 0.400000 0
1.700000 0.400000 0
1.800000 0.400000 0
1.900000 0.400000 0
2.000000 0.400000 0
2.100000 0.400000 0
2.200000 0.400000 0
2.300000 0.400000 0
2.400000 0.400000 0
2.500000 0.400000 0
2.600000 0.400000 0
2.700000 0.400000 0
2.800000 0.400000 0
2.900000 0.400000 0
3.000000 0.400000 0
3.100000 0.400000 0
3.200000 0.400000 0
3.300000 0.400000 0
3.400000 0.400000 0
3.500000 0.400000 0
3.600000 0.400000 0
3.700000 0.400000 0
3.800000 0.400000 0
3.900000 0.400000 0
4.000000 0.400000 0
4.100000 0.400000 0
4.200000 0.400000 0
4.300000 0.400000 0
4.400000 0.400000 0
4.500000 0.400000 0
4.600000 0.400000 0
4.700000 0.400000 0
4.800000 0.400000 0
4.900000 0.400000 0
5.000000 0.400000 0
5.100000 0.400000 0
5.200000 0.400000 0
5.300000 0.400000 0
5.400000 0.400000 0
5.500000 0.400000 0
5.600000 0.400000 0
5.700000 0.400000 0
5.800000 0.400000 0
5.900000 0.400000 0
6.000000 0.400000 0
6.100000 0.400000 0
6.200000 0.400000 0
6.300000 0.400000 0
6.400000 0.400000 0
6.500000 0.400000 0
6.600000 0.400000 0
6.700000 0.400000 0
6.800000 0.400000 0
6.900000 0.400000 0
7.000000 0.400000 0
7.100000 0.400000 0
7.200000 0.400000 0
7.300000 0.400000 0
7.400000 0.400000 0
7.500000 0.400000 0
7.600000 0.400000 0
7.700000 0.400000 0
7.800000 0.400000 0
7.900000 0.400000 0
8.000000 0.400000 0
8.100000 0.400000 0
8.200000 0.400000 0
8.300000 0.400000 0
8.400000 0.400000 0
8.500000 0.400000 0
8.600000 0.400000 0
[...]
POINT_DATA 2121 

VECTORS velocity float
0.500000 0.000000 0
-0.000003 0.000000 0
-0.000005 0.000000 0
-0.000006 0.000000 0
-0.000003 0.000000 0
0.000005 0.000000 0
0.000022 0.000000 0
0.000051 0.000000 0
0.000095 0.000000 0
0.000155 0.000000 0
0.000230 0.000000 0
0.000315 0.000000 0
0.000400 0.000000 0
0.000472 0.000000 0
0.000511 0.000000 0
0.000497 0.000000 0
0.000413 0.000000 0
0.000243 0.000000 0
-0.000017 0.000000 0
-0.000363 0.000000 0
-0.000782 0.000000 0
-0.001245 0.000000 0
-0.001707 0.000000 0
-0.002104 0.000000 0
-0.002340 0.000000 0
-0.002327 0.000000 0
-0.002022 0.000000 0
-0.001455 0.000000 0
-0.000700 0.000000 0
0.000149 0.000000 0
0.000998 0.000000 0
0.001772 0.000000 0
0.002421 0.000000 0
0.002914 0.000000 0
0.003237 0.000000 0
0.003382 0.000000 0
0.003345 0.000000 0
0.003125 0.000000 0
0.002719 0.000000 0
0.002126 0.000000 0
0.001337 0.000000 0
0.000338 0.000000 0
-0.000868 0.000000 0
-0.002171 0.000000 0
-0.003465 0.000000 0
-0.004632 0.000000 0
-0.005525 0.000000 0
-0.005987 0.000000 0
-0.005883 0.000000 0
-0.005150 0.000000 0
-0.003842 0.000000 0
-0.002167 0.000000 0
-0.000426 0.000000 0
0.001221 0.000000 0
0.002677 0.000000 0
0.003869 0.000000 0
0.004749 0.000000 0
0.005300 0.000000 0
0.005529 0.000000 0
0.005453 0.000000 0
0.005095 0.000000 0
0.004477 0.000000 0
0.003616 0.000000 0
0.002531 0.000000 0
0.001266 0.000000 0
-0.000087 0.000000 0
-0.001322 0.000000 0
-0.002386 0.000000 0
-0.003291 0.000000 0
-0.004060 0.000000 0
-0.004705 0.000000 0
-0.005212 0.000000 0
-0.005534 0.000000 0
-0.005587 0.000000 0
-0.005267 0.000000 0
-0.004486 0.000000 0
-0.003240 0.000000 0
-0.001664 0.000000 0
0.000019 0.000000 0
0.001691 0.000000 0
0.003260 0.000000 0
0.004614 0.000000 0
0.005643 0.000000 0
0.006247 0.000000 0
0.006343 0.000000 0
0.005891 0.000000 0
0.004920 0.000000 0
0.003547 0.000000 0
0.001965 0.000000 0
0.000409 0.000000 0
-0.000882 0.000000 0
-0.001779 0.000000 0
-0.002385 0.000000 0
-0.002801 0.000000 0
-0.003111 0.000000 0
-0.003370 0.000000 0
-0.003608 0.000000 0
-0.003831 0.000000 0
-0.004028 0.000000 0
-0.004181 0.000000 0
-0.004424 0.000000 0
1.000000 0.000000 0
1.002684 -0.004884 0
1.011021 -0.010569 0
1.025406 -0.016733 0
1.046257 -0.023151 0
1.073813 -0.029425 0
1.107815 -0.034858 0
1.147087 -0.038497 0
1.189239 -0.039364 0
1.230537 -0.037072 0
1.267521 -0.032143 0
1.297968 -0.025551 0
1.320856 -0.018233 0
1.336007 -0.010922 0
1.343824 -0.004166 0
1.345149 0.001616 0
1.341162 0.006128 0
1.333288 0.009174 0
1.323123 0.010649 0
1.312324 0.010560 0
1.302482 0.009042 0
1.294989 0.006360 0
1.290906 0.002922 0
1.290816 -0.000685 0
1.294582 -0.003666 0
1.301142 -0.005206 0
1.308555 -0.004770 0
1.314436 -0.002320 0
1.316621 0.001758 0
1.313681 0.006847 0
1.305011 0.012269 0
1.290698 0.017440 0
1.271334 0.021936 0
1.247830 0.025487 0
1.221277 0.027936 0
1.192852 0.029201 0
1.163783 0.029240 0
1.135314 0.028031 0
1.108704 0.025559 0
1.085207 0.021801 0
1.066063 0.016701 0
1.052464 0.010171 0
1.045503 0.002280 0
1.046105 -0.006438 0
1.054923 -0.015198 0
1.072073 -0.023205 0
1.096864 -0.029555 0
1.127629 -0.033304 0
1.161759 -0.033657 0
1.195858 -0.030207 0
1.226094 -0.023211 0
1.248827 -0.013742 0
1.261449 -0.003385 0
1.263057 0.006657 0
1.254320 0.015749 0
1.236599 0.023416 0
1.211656 0.029333 0
1.181464 0.033338 0
1.148052 0.035401 0
1.113400 0.035575 0
1.079381 0.033944 0
1.047724 0.030590 0
1.019987 0.025586 0
0.997478 0.019050 0
0.981136 0.011255 0
0.971423 0.002842 0
0.968348 -0.005160 0
0.971573 -0.012068 0
0.980515 -0.017832 0
0.994546 -0.022564 0
1.013059 -0.026356 0
1.035469 -0.029185 0
1.061134 -0.030850 0
1.089175 -0.030952 0
1.118251 -0.028963 0
1.146426 -0.024441 0
1.171215 -0.017351 0
1.189861 -0.008345 0
1.199863 0.001497 0
1.199793 0.011329 0
1.189778 0.020596 0
1.170721 0.028713 0
1.144131 0.035059 0
1.112058 0.039041 0
1.076995 0.040150 0
1.041692 0.038085 0
1.008875 0.032923 0
0.980849 0.025250 0
0.959115 0.016141 0
0.944166 0.006977 0
0.935600 -0.000798 0
0.932500 -0.006366 0
0.933668 -0.009921 0
0.937870 -0.012048 0
0.944152 -0.013229 0
0.951868 -0.013787 0
0.960611 -0.013869 0
0.970065 -0.013443 0
0.979842 -0.012301 0
0.989335 -0.009935 0
0.996860 -0.008595 0
1.000000 0.000002 0
1.003005 -0.011038 0
1.011810 -0.022734 0
1.026770 -0.035249 0
1.048531 -0.048420 0
1.077769 -0.061571 0
1.114788 -0.073288 0
1.158813 -0.081438 0
1.207408 -0.083463 0
1.254641 -0.078296 0
1.295725 -0.067444 0
1.328482 -0.053348 0
1.352414 -0.038052 0
1.367767 -0.022980 0
1.375177 -0.009154 0
1.375664 0.002650 0
1.370519 0.011850 0
1.361278 0.018028 0
1.349684 0.020953 0
1.337565 0.020630 0
1.326690 0.017325 0
1.318624 0.011566 0
1.314638 0.004162 0
1.315619 -0.003686 0
1.321696 -0.010337 0
1.331776 -0.013985 0
1.343413 -0.013306 0
1.353376 -0.008078 0
1.358775 0.000742 0
1.358027 0.011597 0
1.350700 0.022970 0
1.337148 0.033664 0
1.318207 0.042854 0
1.294961 0.050044 0
1.268591 0.054964 0
1.240304 0.057481 0
1.211307 0.057525 0
1.182804 0.055066 0
1.155985 0.050094 0
1.132009 0.042628 0
1.111960 0.032732 0
1.096789 0.020549 0
1.087285 0.006347 0
1.084212 -0.009431 0
1.088448 -0.025979 0
1.100522 -0.041952 0
1.120307 -0.055567 0
1.146944 -0.064907 0
1.178902 -0.068240 0
1.213866 -0.064346 0
1.248559 -0.052981 0
1.278851 -0.035368 0
1.300462 -0.014242 0
1.310383 0.007117 0
1.308517 0.026445 0
1.296478 0.042651 0
1.276271 0.055123 0
1.250058 0.063591 0
1.219989 0.068050 0
1.188084 0.068658 0
1.156171 0.065663 0
1.125822 0.059381 0
1.098294 0.050233 0
1.074455 0.038838 0
1.054748 0.026042 0
1.039253 0.012776 0
1.027977 -0.000162 0
1.021124 -0.012178 0
1.018729 -0.022984 0
1.020713 -0.032555 0
1.027043 -0.040933 0
1.037832 -0.048086 0
1.053279 -0.053716 0
1.073409 -0.057125 0
1.097738 -0.057259 0
1.125061 -0.052973 0
1.153387 -0.043443 0
1.179969 -0.028654 0
1.201491 -0.009938 0
1.214834 0.010079 0
1.218533 0.029069 0
1.213103 0.045645 0
1.199765 0.058661 0
1.180210 0.067135 0
1.156399 0.070366 0
1.130331 0.068121 0
1.103815 0.060845 0
1.078276 0.049763 0
1.054691 0.036686 0
1.033643 0.023518 0
1.015495 0.011671 0
1.000613 0.001938 0
0.989078 -0.005365 0
0.980563 -0.010478 0
0.974613 -0.013992 0
0.970928 -0.016452 0
0.969440 -0.018190 0
0.970184 -0.019224 0
0.973109 -0.019262 0
0.977930 -0.017011 0
0.983537 -0.015671 0
1.000000 0.000004 0
1.002606 -0.016706 0
1.010597 -0.034340 0
1.024617 -0.053459 0
1.045821 -0.074156 0
1.075747 -0.095688 0
1.115941 -0.115908 0
1.166795 -0.131123 0
1.226948 -0.135196 0
1.283535 -0.125394 0
1.329309 -0.105989 0
1.363320 -0.082245 0
1.386672 -0.057524 0
1.400424 -0.033689 0
1.405425 -0.012067 0
1.402869 0.006270 0
1.394103 0.020511 0
1.380818 0.030005 0
1.365013 0.034358 0
1.348829 0.033550 0
1.334346 0.027978 0
1.323397 0.018408 0
1.317511 0.005923 0
1.318050 -0.007747 0
1.325834 -0.019829 0
1.339960 -0.026928 0
1.357283 -0.026375 0
1.373073 -0.017687 0
1.382831 -0.002898 0
1.384345 0.014916 0
1.377622 0.033142 0
1.363583 0.049928 0
1.343572 0.064118 0
1.319001 0.075097 0
1.291207 0.082588 0
1.261427 0.086480 0
1.230825 0.086735 0
1.200521 0.083349 0
1.171604 0.076350 0
1.145128 0.065822 0
1.122074 0.051916 0
1.103292 0.034841 0
1.089441 0.014853 0
1.080990 -0.007606 0
1.078367 -0.031512 0
1.081988 -0.055068 0
1.092127 -0.075981 0
1.109033 -0.091904 0
1.132980 -0.100584 0
1.163619 -0.099868 0
1.199160 -0.088201 0
1.235965 -0.065651 0
1.268811 -0.034923 0
1.292066 -0.001403 0
1.302155 0.029648 0
1.300032 0.055657 0
1.287911 0.075748 0
1.268170 0.089615 0
1.243114 0.097369 0
1.214850 0.099387 0
1.185197 0.096201 0
1.155641 0.088462 0
1.127313 0.076948 0
1.101015 0.062591 0
1.077281 0.046452 0
1.056429 0.029608 0
1.038520 0.012964 0
1.023376 -0.002825 0
1.010816 -0.017425 0
1.000997 -0.030882 0
0.994708 -0.043479 0
0.993182 -0.055424 0
0.997754 -0.066431 0
1.009252 -0.075414 0
1.027570 -0.080619 0
1.051661 -0.080094 0
1.079753 -0.072262 0
1.109572 -0.056451 0
1.138443 -0.033371 0
1.163205 -0.005715 0
1.180573 0.022326 0
1.189325 0.047479 0
1.189933 0.067951 0
1.183385 0.082407 0
1.170940 0.090028 0
1.153908 0.090668 0
1.133516 0.084978 0
1.110882 0.074374 0
1.087081 0.060774 0
1.063161 0.046173 0
1.040041 0.032232 0
1.018290 0.020051 0
0.998221 0.010128 0
0.980073 0.002417 0
0.964081 -0.003594 0
0.950654 -0.008614 0
0.940361 -0.013125 0
0.933745 -0.017112 0
0.930998 -0.020047 0
0.931795 -0.020363 0
0.935627 -0.020663 0
1.000000 0.000006 0
1.002073 -0.021646 0
1.008597 -0.044751 0
1.020505 -0.070478 0
1.039575 -0.099556 0
1.068610 -0.131698 0
1.111415 -0.164342 0
1.171334 -0.192451 0
1.252806 -0.200208 0
1.321412 -0.180662 0
1.368742 -0.147234 0
1.399813 -0.110715 0
1.419534 -0.075161 0
1.429969 -0.041738 0
1.431487 -0.011603 0
1.424817 0.013968 0
1.411021 0.033897 0
1.391926 0.047114 0
1.369903 0.052938 0
1.347568 0.051294 0
1.327462 0.042754 0
1.311722 0.028396 0
1.301921 0.009504 0
1.299458 -0.012014 0
1.306350 -0.032252 0
1.322895 -0.045439 0
1.346213 -0.046424 0
1.370476 -0.033631 0
1.388413 -0.010536 0
1.394882 0.016801 0
1.390114 0.043726 0
1.376201 0.067707 0
1.355373 0.087430 0
1.329545 0.102403 0
1.300259 0.112533 0
1.268784 0.117857 0
1.236237 0.118427 0
1.203672 0.114283 0
1.172129 0.105482 0
1.142636 0.092154 0
1.116154 0.074563 0
1.093373 0.053178 0
1.074353 0.028645 0
1.058279 0.001639 0
1.044031 -0.026982 0
1.031908 -0.055717 0
1.024021 -0.082617 0
1.023317 -0.105765 0
1.032881 -0.122830 0
1.054249 -0.130531 0
1.086593 -0.125333 0
1.126834 -0.105024 0
1.169990 -0.070348 0
1.209548 -0.026232 0
1.238430 0.018473 0
1.253081 0.056889 0
1.255241 0.086980 0
1.247266 0.108383 0
1.231537 0.121364 0
1.210275 0.126570 0
1.185434 0.124867 0
1.158644 0.117260 0
1.131204 0.104854 0
1.104093 0.088865 0
1.077952 0.070622 0
1.053011 0.051532 0
1.029044 0.032887 0
1.005557 0.015521 0
0.982441 -0.000610 0
0.960612 -0.016452 0
0.942311 -0.033123 0
0.930568 -0.051136 0
0.927624 -0.069790 0
0.934083 -0.086945 0
0.949125 -0.099672 0
0.971146 -0.105159 0
0.998255 -0.101357 0
1.028500 -0.087347 0
1.059887 -0.063574 0
1.090235 -0.032054 0
1.116690 0.002946 0
1.136205 0.036283 0
1.148006 0.064599 0
1.152313 0.086126 0
1.149729 0.099842 0
1.141037 0.105543 0
1.127109 0.103869 0
1.108885 0.096196 0
1.087377 0.084406 0
1.063597 0.070557 0
1.038444 0.056541 0
1.012631 0.043756 0
0.986813 0.032851 0
0.961833 0.023660 0
0.938871 0.015426 0
0.919256 0.007266 0
0.904124 -0.001283 0
0.894097 -0.009862 0
0.889153 -0.017314 0
0.888608 -0.021641 0
0.891505 -0.024298 0
1.000000 0.000008 0
1.001239 -0.025314 0
1.005274 -0.052777 0
1.013150 -0.084443 0
1.027075 -0.122268 0
1.051147 -0.167533 0
1.092460 -0.218636 0
1.160748 -0.272519 0
1.279037 -0.285280 0
1.352930 -0.241335 0
1.387068 -0.184394 0
1.403831 -0.133041 0
1.413853 -0.087684 0
1.419209 -0.045646 0
1.417456 -0.006920 0
1.406752 0.026731 0
1.387546 0.053397 0
1.361748 0.071119 0
1.332119 0.078712 0
1.301834 0.075987 0
1.273991 0.063820 0
1.250977 0.043944 0
1.234001 0.018182 0
1.223298 -0.012181 0
1.221055 -0.043270 0
1.231063 -0.066796 0
1.253749 -0.073962 0
1.285567 -0.059893 0
1.318055 -0.027310 0
1.339853 0.013209 0
1.345470 0.051817 0
1.338762 0.084663 0
1.323352 0.110769 0
1.301767 0.130206 0
1.275704 0.143344 0
1.246403 0.150497 0
1.214919 0.151842 0
1.182261 0.147452 0
1.149445 0.137381 0
1.117490 0.121792 0
1.087287 0.101175 0
1.059179 0.076637 0
1.032208 0.049942 0
1.003898 0.022712 0
0.971996 -0.005146 0
0.937735 -0.035063 0
0.907821 -0.067395 0
0.890798 -0.100769 0
0.890676 -0.131521 0
0.907099 -0.153586 0
0.937582 -0.160791 0
0.978806 -0.149053 0
1.026859 -0.117642 0
1.076976 -0.069849 0
1.122975 -0.013890 0
1.157373 0.038840 0
1.177878 0.081557 0
1.186160 0.113314 0
1.184225 0.134355 0
1.174126 0.145485 0
1.157799 0.147827 0
1.136955 0.142686 0
1.113008 0.131494 0
1.086965 0.115838 0
1.059269 0.097528 0
1.029750 0.078510 0
0.997991 0.060413 0
0.964263 0.043773 0
0.930482 0.027516 0
0.900129 0.009244 0
0.876998 -0.013439 0
0.863828 -0.040742 0
0.861387 -0.069950 0
0.868569 -0.096918 0
0.883530 -0.117685 0
0.904474 -0.129228 0
0.929868 -0.129620 0
0.958350 -0.118087 0
0.988597 -0.095109 0
1.019206 -0.062521 0
1.048517 -0.023648 0
1.073808 0.016160 0
1.092721 0.051840 0
1.104672 0.080681 0
1.109613 0.101302 0
1.107832 0.113285 0
1.099819 0.117127 0
1.086205 0.114104 0
1.067702 0.106059 0
1.045051 0.095102 0
1.019035 0.083196 0
0.990624 0.071680 0
0.961189 0.060923 0
0.932579 0.050356 0
0.906887 0.038981 0
0.885939 0.026131 0
0.870789 0.012031 0
0.861510 -0.002144 0
0.857405 -0.014561 0
0.857345 -0.022718 0
0.859910 -0.027413 0
1.000000 0.000011 0
1.000045 -0.026932 0
1.000385 -0.056668 0
1.001763 -0.092285 0
1.006051 -0.137558 0
1.017568 -0.197088 0
1.046077 -0.273947 0
1.111442 -0.379033 0
1.278886 -0.392396 0
1.327050 -0.288697 0
1.314744 -0.198139 0
1.299147 -0.137504 0
1.291601 -0.090544 0
1.292112 -0.045346 0
1.290919 0.000850 0
1.279677 0.043874 0
1.258006 0.078897 0
1.227589 0.102536 0
1.191180 0.112848 0
1.152262 0.109418 0
1.114430 0.093605 0
1.079942 0.068381 0
1.048911 0.037179 0
1.021006 0.000926 0
0.997585 -0.040022 0
0.988161 -0.078139 0
1.001797 -0.100934 0
1.038228 -0.097943 0
1.089715 -0.064828 0
1.142710 -0.010620 0
1.181086 0.044812 0
1.200260 0.089820 0
1.206101 0.124420 0
1.202136 0.150046 0
1.190347 0.167892 0
1.172094 0.178637 0
1.148553 0.182564 0
1.120844 0.179753 0
1.089950 0.170249 0
1.056336 0.154307 0
1.019323 0.132870 0
0.976925 0.108252 0
0.927531 0.083921 0
0.873139 0.061846 0
0.820603 0.039176 0
0.778357 0.008454 0
0.752466 -0.035684 0
0.744733 -0.088625 0
0.752831 -0.139136 0
0.773548 -0.177441 0
0.804544 -0.197045 0
0.844177 -0.194307 0
0.890686 -0.168523 0
0.941616 -0.122354 0
0.993481 -0.061930 0
1.040653 0.001981 0
1.076338 0.058188 0
1.099615 0.102031 0
1.111554 0.133392 0
1.113575 0.152990 0
1.107201 0.162033 0
1.093859 0.162046 0
1.074676 0.154840 0
1.050267 0.142598 0
1.020667 0.127832 0
0.985765 0.112806 0
0.946378 0.098369 0
0.905361 0.083025 0
0.867560 0.063519 0
0.838153 0.037027 0
0.820287 0.003174 0
0.813887 -0.035529 0
0.816805 -0.074535 0
0.826551 -0.109092 0
0.841282 -0.135582 0
0.859903 -0.151502 0
0.881769 -0.155237 0
0.906336 -0.146080 0
0.932924 -0.124434 0
0.960631 -0.091978 0
0.988324 -0.051660 0
1.014469 -0.007925 0
1.036385 0.033732 0
1.052550 0.069230 0
1.062333 0.096678 0
1.065519 0.115334 0
1.062165 0.125492 0
1.052506 0.128309 0
1.036913 0.125556 0
1.015939 0.119220 0
0.990486 0.110965 0
0.962028 0.101599 0
0.932681 0.090892 0
0.904943 0.077958 0
0.881119 0.062061 0
0.862732 0.043361 0
0.850252 0.023142 0
0.843224 0.003517 0
0.840582 -0.013154 0
0.841088 -0.024150 0
0.843416 -0.030262 0
1.000000 0.000013 0
0.998591 -0.025711 0
0.994315 -0.054501 0
0.987042 -0.090115 0
0.976941 -0.138078 0
0.965571 -0.207565 0
0.959375 -0.312516 0
0.980652 -0.505332 0
1.142166 -0.500893 0
1.126832 -0.277198 0
1.020895 -0.156496 0
0.962110 -0.109903 0
0.933301 -0.080654 0
0.934551 -0.044967 0
0.948155 0.005511 0
0.948521 0.059639 0
0.935024 0.105482 0
0.907454 0.137941 0
0.865638 0.154035 0
0.810341 0.152732 0
0.744798 0.136135 0
0.676666 0.109458 0
0.617935 0.077112 0
0.580324 0.039141 0
0.569024 -0.010431 0
0.582494 -0.071014 0
0.618009 -0.124034 0
0.672945 -0.147816 0
0.743981 -0.131796 0
0.825581 -0.078167 0
0.905634 -0.005740 0
0.967657 0.059642 0
1.008173 0.108888 0
1.032874 0.145956 0
1.044479 0.173381 0
1.044606 0.192287 0
1.034533 0.203088 0
1.015203 0.206050 0
0.986866 0.201884 0
0.948669 0.192414 0
0.899031 0.180581 0
0.837840 0.168425 0
0.769965 0.153724 0
0.706500 0.129635 0
0.660341 0.089631 0
0.638807 0.033070 0
0.639299 -0.033775 0
0.652317 -0.101139 0
0.671123 -0.160342 0
0.693518 -0.205305 0
0.720065 -0.231425 0
0.752192 -0.235200 0
0.790718 -0.215087 0
0.835033 -0.172649 0
0.883072 -0.112933 0
0.931633 -0.044022 0
0.974802 0.022590 0
1.007635 0.078092 0
1.029714 0.120390 0
1.041458 0.149832 0
1.043621 0.167538 0
1.036970 0.175205 0
1.022026 0.175080 0
0.998999 0.169843 0
0.968167 0.162026 0
0.930854 0.152794 0
0.890418 0.140813 0
0.852127 0.122587 0
0.821421 0.094719 0
0.801669 0.056512 0
0.793187 0.010822 0
0.793845 -0.037266 0
0.800456 -0.082618 0
0.810610 -0.121399 0
0.823055 -0.151042 0
0.837435 -0.169719 0
0.853900 -0.176057 0
0.872680 -0.169247 0
0.893742 -0.149409 0
0.916621 -0.117926 0
0.940463 -0.077490 0
0.964124 -0.031905 0
0.985794 0.013755 0
1.003281 0.054729 0
1.015452 0.088328 0
1.021647 0.113448 0
1.021523 0.130135 0
1.014984 0.139350 0
1.002208 0.142621 0
0.983795 0.141525 0
0.960961 0.137102 0
0.935631 0.129480 0
0.910231 0.118002 0
0.887165 0.101912 0
0.868230 0.081187 0
0.854264 0.056993 0
0.845197 0.031535 0
0.840348 0.007520 0
0.838766 -0.012431 0
0.839448 -0.025556 0
0.841495 -0.032734 0
1.000000 0.000015 0
0.997174 -0.021260 0
0.988321 -0.045124 0
0.972089 -0.074916 0
0.945835 -0.116092 0
0.904815 -0.179527 0
0.840388 -0.289033 0
0.737482 -0.561828 0
0.553173 -0.538581 0
-0.000337 -0.167430 0
0.399025 -0.033421 0
0.325901 -0.049914 0
0.329950 -0.062989 0
0.369951 -0.060204 0
0.421336 -0.013125 0
0.454274 0.057002 0
0.462426 0.119960 0
0.448172 0.171917 0
0.410401 0.209957 0
0.351355 0.230254 0
0.280302 0.227276 0
0.214692 0.195240 0
0.175219 0.133516 0
0.173545 0.049832 0
0.206387 -0.042198 0
0.258109 -0.127129 0
0.316798 -0.191391 0
0.380675 -0.223920 0
0.452655 -0.217469 0
0.535157 -0.172279 0
0.626850 -0.097269 0
0.716217 -0.012724 0
0.787467 0.059198 0
0.837614 0.113735 0
0.870373 0.156155 0
0.887260 0.188578 0
0.889076 0.211962 0
0.876050 0.227415 0
0.847913 0.236778 0
0.804750 0.242137 0
0.749217 0.243694 0
0.689012 0.237314 0
0.636263 0.215257 0
0.602133 0.171466 0
0.590870 0.106864 0
0.598818 0.029491 0
0.617365 -0.049198 0
0.637882 -0.120455 0
0.656341 -0.180343 0
0.672398 -0.226389 0
0.688125 -0.255724 0
0.706824 -0.264965 0
0.731569 -0.251370 0
0.763739 -0.214714 0
0.802413 -0.158536 0
0.844900 -0.089754 0
0.887384 -0.017820 0
0.923762 0.047113 0
0.951125 0.099563 0
0.968782 0.139077 0
0.976608 0.166517 0
0.974642 0.183635 0
0.962972 0.192806 0
0.942000 0.196453 0
0.913164 0.195971 0
0.879724 0.190549 0
0.846705 0.177092 0
0.819443 0.152018 0
0.801486 0.113972 0
0.793453 0.065256 0
0.793622 0.010992 0
0.799249 -0.042803 0
0.807600 -0.091304 0
0.816834 -0.131696 0
0.826087 -0.162412 0
0.835369 -0.182352 0
0.845344 -0.190487 0
0.856944 -0.185928 0
0.870893 -0.168381 0
0.887339 -0.138704 0
0.905763 -0.099168 0
0.925161 -0.053261 0
0.944204 -0.005430 0
0.960790 0.039567 0
0.973358 0.078306 0
0.980904 0.109258 0
0.982801 0.132150 0
0.978768 0.147618 0
0.968969 0.156738 0
0.954166 0.160461 0
0.935827 0.159122 0
0.915998 0.152323 0
0.896904 0.139353 0
0.880393 0.119952 0
0.867542 0.094955 0
0.858593 0.066387 0
0.853175 0.037052 0
0.850610 0.009941 0
0.850143 -0.012260 0
0.851059 -0.026885 0
0.852894 -0.034844 0
1.000000 0.000016 0
0.996196 -0.014044 0
0.984181 -0.029421 0
0.961750 -0.047634 0
0.924285 -0.070809 0
0.862513 -0.102122 0
0.756616 -0.145187 0
0.563163 -0.218122 0
0.073079 -0.000000 0
-0.532422 0.134076 0
0.000000 0.000079 0
-0.032768 -0.052067 0
-0.057796 -0.124707 0
-0.029517 -0.136356 0
-0.007157 -0.078816 0
0.026851 0.018545 0
0.051830 0.111580 0
0.058234 0.189963 0
0.044502 0.250848 0
0.017313 0.282827 0
-0.009007 0.272794 0
-0.011066 0.214535 0
0.017740 0.118254 0
0.067060 0.007968 0
0.120064 -0.094999 0
0.168443 -0.181430 0
0.211268 -0.246606 0
0.252335 -0.283679 0
0.298425 -0.286284 0
0.355765 -0.252368 0
0.426716 -0.186805 0
0.508369 -0.100981 0
0.588521 -0.012514 0
0.652450 0.063045 0
0.697385 0.123730 0
0.724345 0.173579 0
0.733569 0.214294 0
0.725285 0.247208 0
0.700780 0.273179 0
0.664074 0.291105 0
0.623317 0.296314 0
0.589719 0.281375 0
0.573043 0.240598 0
0.576692 0.175023 0
0.596940 0.092941 0
0.626134 0.006570 0
0.654775 -0.072844 0
0.677829 -0.140120 0
0.693435 -0.194864 0
0.701793 -0.237094 0
0.705134 -0.265856 0
0.707556 -0.278650 0
0.714053 -0.272007 0
0.728652 -0.243499 0
0.752641 -0.194099 0
0.784239 -0.128999 0
0.819750 -0.056278 0
0.854171 0.014347 0
0.882302 0.075365 0
0.902159 0.124344 0
0.912810 0.161673 0
0.913823 0.188836 0
0.905320 0.207718 0
0.888424 0.219646 0
0.865830 0.224296 0