# vtk DataFile Version 2.0
generated by CFD-lab course output (written by Tobias Neckel) 
ASCII

DATASET STRUCTURED_GRID
DIMENSIONS  101 21 1 
POINTS 2121 float

0.000000 0.000000 0
0.100000 0.000000 0
0.200000 0.000000 0
0.300000 0.000000 0
0.400000 0.000000 0
0.500000 0.000000 0
0.600000 0.000000 0
0.700000 0.000000 0
0.800000 0.000000 0
0.900000 0.000000 0
1.000000 0.000000 0
1.100000 0.000000 0
1.200000 0.000000 0
1.300000 0.000000 0
1.400000 0.000000 0
1.500000 0.000000 0
1.600000 0.000000 0
1.700000 0.000000 0
1.800000 0.000000 0
1.900000 0.000000 0
2.000000 0.000000 0
2.100000 0.000000 0
2.200000 0.000000 0
2.300000 0.000000 0
2.400000 0.000000 0
2.500000 0.000000 0
2.600000 0.000000 0
2.700000 0.000000 0
2.800000 0.000000 0
2.900000 0.000000 0
3.000000 0.000000 0
3.100000 0.000000 0
3.200000 0.000000 0
3.300000 0.000000 0
3.400000 0.000000 0
3.500000 0.000000 0
3.600000 0.000000 0
3.700000 0.000000 0
3.800000 0.000000 0
3.900000 0.000000 0
4.000000 0.000000 0
4.100000 0.000000 0
4.200000 0.000000 0
4.300000 0.000000 0
4.400000 0.000000 0
4.500000 0.000000 0
4.600000 0.000000 0
4.700000 0.000000 0
4.800000 0.000000 0
4.900000 0.000000 0
5.000000 0.000000 0
5.100000 0.000000 0
5.200000 0.000000 0
5.300000 0.000000 0
5.400000 0.000000 0
5.500000 0.000000 0
5.600000 0.000000 0
5.700000 0.000000 0
5.800000 0.000000 0
5.900000 0.000000 0
6.000000 0.000000 0
6.100000 0.000000 0
6.200000 0.000000 0
6.300000 0.000000 0
6.400000 0.000000 0
6.500000 0.000000 0
6.600000 0.000000 0
6.700000 0.000000 0
6.800000 0.000000 0
6.900000 0.000000 0
7.000000 0.000000 0
7.100000 0.000000 0
7.200000 0.000000 0
7.300000 0.000000 0
7.400000 0.000000 0
7.500000 0.000000 0
7.600000 0.000000 0
7.700000 0.000000 0
7.800000 0.000000 0
7.900000 0.000000 0
8.000000 0.000000 0
8.100000 0.000000 0
8.200000 0.000000 0
8.300000 0.000000 0
8.400000 0.000000 0
8.500000 0.000000 0
8.600000 0.000000 0
8.700000 0.000000 0
8.800000 0.000000 0
8.900000 0.000000 0
9.000000 0.000000 0
9.100000 0.000000 0
9.200000 0.000000 0
9.300000 0.000000 0
9.400000 0.000000 0
9.500000 0.000000 0
9.600000 0.000000 0
9.700000 0.000000 0
9.800000 0.000000 0
9.900000 0.000000 0
10.000000 0.000000 0
0.000000 0.100000 0
0.100000 0.100000 0
0.200000 0.100000 0
0.300000 0.100000 0
0.400000 0.100000 0
0.500000 0.100000 0
0.600000 0.100000 0
0.700000 0.100000 0
0.800000 0.100000 0
0.900000 0.100000 0
1.000000 0.100000 0
1.100000 0.100000 0
1.200000 0.100000 0
1.300000 0.100000 0
1.400000 0.100000 0
1.500000 0.100000 0
1.600000 0.100000 0
1.700000 0.100000 0
1.800000 0.100000 0
1.900000 0.100000 0
2.000000 0.100000 0
2.100000 0.100000 0
2.200000 0.100000 0
2.300000 0.100000 0
2.400000 0.100000 0
2.500000 0.100000 0
2.600000 0.100000 0
2.700000 0.100000 0
2.800000 0.100000 0
2.900000 0.100000 0
3.000000 0.100000 0
3.100000 0.100000 0
3.200000 0.100000 0
3.300000 0.100000 0
3.400000 0.100000 0
3.500000 0.100000 0
3.600000 0.100000 0
3.700000 0.100000 0
3.800000 0.100000 0
3.900000 0.100000 0
4.000000 0.100000 0
4.100000 0.100000 0
4.200000 0.100000 0
4.300000 0.100000 0
4.400000 0.100000 0
4.500000 0.100000 0
4.600000 0.100000 0
4.700000 0.100000 0
4.800000 0.100000 0
4.900000 0.100000 0
5.000000 0.100000 0
5.100000 0.100000 0
5.200000 0.100000 0
5.300000 0.100000 0
5.400000 0.100000 0
5.500000 0.100000 0
5.600000 0.100000 0
5.700000 0.100000 0
5.800000 0.100000 0
5.900000 0.100000 0
6.000000 0.100000 0
6.100000 0.100000 0
6.200000 0.100000 0
6.300000 0.100000 0
6.400000 0.100000 0
6.500000 0.100000 0
6.600000 0.100000 0
6.700000 0.100000 0
6.800000 0.100000 0
6.900000 0.100000 0
7.000000 0.100000 0
7.100000 0.100000 0
7.200000 0.100000 0
7.300000 0.100000 0
7.400000 0.100000 0
7.500000 0.100000 0
7.600000 0.100000 0
7.700000 0.100000 0
7.800000 0.100000 0
7.900000 0.100000 0
8.000000 0.100000 0
8.100000 0.100000 0
8.200000 0.100000 0
8.300000 0.100000 0
8.400000 0.100000 0
8.500000 0.100000 0
8.600000 0.100000 0
8.700000 0.100000 0
8.800000 0.100000 0
8.900000 0.100000 0
9.000000 0.100000 0
9.100000 0.100000 0
9.200000 0.100000 0
9.300000 0.100000 0
9.400000 0.100000 0
9.500000 0.100000 0
9.600000 0.100000 0
9.700000 0.100000 0
9.800000 0.100000 0
9.900000 0.100000 0
10.000000 0.100000 0
0.000000 0.200000 0
0.100000 0.200000 0
0.200000 0.200000 0
0.300000 0.200000 0
0.400000 0.200000 0
0.500000 0.200000 0
0.600000 0.200000 0
0.700000 0.200000 0
0.800000 0.200000 0
0.900000 0.200000 0
1.000000 0.200000 0
1.100000 0.200000 0
1.200000 0.200000 0
1.300000 0.200000 0
1.400000 0.200000 0
1.500000 0.200000 0
1.600000 0.200000 0
1.700000 0.200000 0
1.800000 0.200000 0
1.900000 0.200000 0
2.000000 0.200000 0
2.100000 0.200000 0
2.200000 0.200000 0
2.300000 0.200000 0
2.400000 0.200000 0
2.500000 0.200000 0
2.600000 0.200000 0
2.700000 0.200000 0
2.800000 0.200000 0
2.900000 0.200000 0
3.000000 0.200000 0
3.100000 0.200000 0
3.200000 0.200000 0
3.300000 0.200000 0
3.400000 0.200000 0
3.500000 0.200000 0
3.600000 0.200000 0
3.700000 0.200000 0
3.800000 0.200000 0
3.900000 0.200000 0
4.000000 0.200000 0
4.100000 0.200000 0
4.200000 0.200000 0
4.300000 0.200000 0
4.400000 0.200000 0
4.500000 0.200000 0
4.600000 0.200000 0
4.700000 0.200000 0
4.800000 0.200000 0
4.900000 0.200000 0
5.000000 0.200000 0
5.100000 0.200000 0
5.200000 0.200000 0
5.300000 0.200000 0
5.400000 0.200000 0
5.500000 0.200000 0
5.600000 0.200000 0
5.700000 0.200000 0
5.800000 0.200000 0
5.900000 0.200000 0
6.000000 0.200000 0
6.100000 0.200000 0
6.200000 0.200000 0
6.300000 0.200000 0
6.400000 0.200000 0
6.500000 0.200000 0
6.600000 0.200000 0
6.700000 0.200000 0
6.800000 0.200000 0
6.900000 0.200000 0
7.000000 0.200000 0
7.100000 0.200000 0
7.200000 0.200000 0
7.300000 0.200000 0
7.400000 0.200000 0
7.500000 0.200000 0
7.600000 0.200000 0
7.700000 0.200000 0
7.800000 0.200000 0
7.900000 0.200000 0
8.000000 0.200000 0
8.100000 0.200000 0
8.200000 0.200000 0
8.300000 0.200000 0
8.400000 0.200000 0
8.500000 0.200000 0
8.600000 0.200000 0
8.700000 0.200000 0
8.800000 0.200000 0
8.900000 0.200000 0
9.000000 0.200000 0
9.100000 0.200000 0
9.200000 0.200000 0
9.300000 0.200000 0
9.400000 0.200000 0
9.500000 0.200000 0
9.600000 0.200000 0
9.700000 0.200000 0
9.800000 0.200000 0
9.900000 0.200000 0
10.000000 0.200000 0
0.000000 0.300000 0
0.100000 0.300000 0
0.200000 0.300000 0
0.300000 0.300000 0
0.400000 0.300000 0
0.500000 0.300000 0
0.600000 0.300000 0
0.700000 0.300000 0
0.800000 0.300000 0
0.900000 0.300000 0
1.000000 0.300000 0
1.100000 0.300000 0
1.200000 0.300000 0
1.300000 0.300000 0
1.400000 0.300000 0
1.500000 0.300000 0
1.600000 0.300000 0
1.700000 0.300000 0
1.800000 0.300000 0
1.900000 0.300000 0
2.000000 0.300000 0
2.100000 0.300000 0
2.200000 0.300000 0
2.300000 0.300000 0
2.400000 0.300000 0
2.500000 0.300000 0
2.600000 0.300000 0
2.700000 0.300000 0
2.800000 0.300000 0
2.900000 0.300000 0
3.000000 0.300000 0
3.100000 0.300000 0
3.200000 0.300000 0
3.300000 0.300000 0
3.400000 0.300000 0
3.500000 0.300000 0
3.600000 0.300000 0
3.700000 0.300000 0
3.800000 0.300000 0
3.900000 0.300000 0
4.000000 0.300000 0
4.100000 0.300000 0
4.200000 0.300000 0
4.300000 0.300000 0
4.400000 0.300000 0
4.500000 0.300000 0
4.600000 0.300000 0
4.700000 0.300000 0
4.800000 0.300000 0
4.900000 0.300000 0
5.000000 0.300000 0
5.100000 0.300000 0
5.200000 0.300000 0
5.300000 0.300000 0
5.400000 0.300000 0
5.500000 0.300000 0
5.600000 0.300000 0
5.700000 0.300000 0
5.800000 0.300000 0
5.900000 0.300000 0
6.000000 0.300000 0
6.100000 0.300000 0
6.200000 0.300000 0
6.300000 0.300000 0
6.400000 0.300000 0
6.500000 0.300000 0
6.600000 0.300000 0
6.700000 0.300000 0
6.800000 0.300000 0
6.900000 0.300000 0
7.000000 0.300000 0
7.100000 0.300000 0
7.200000 0.300000 0
7.300000 0.300000 0
7.400000 0.300000 0
7.500000 0.300000 0
7.600000 0.300000 0
7.700000 0.300000 0
7.800000 0.300000 0
7.900000 0.300000 0
8.000000 0.300000 0
8.100000 0.300000 0
8.200000 0.300000 0
8.300000 0.300000 0
8.400000 0.300000 0
8.500000 0.300000 0
8.600000 0.300000 0
8.700000 0.300000 0
8.800000 0.300000 0
8.900000 0.300000 0
9.000000 0.300000 0
9.100000 0.300000 0
9.200000 0.300000 0
9.300000 0.300000 0
9.400000 0.300000 0
9.500000 0.300000 0
9.600000 0.300000 0
9.700000 0.300000 0
9.800000 0.300000 0
9.900000 0.300000 0
10.000000 0.300000 0
0.000000 0.400000 0
0.100000 0.400000 0
0.200000 0.400000 0
0.300000 0.400000 0
0.400000 0.400000 0
0.500000 0.400000 0
0.600000 0.400000 0
0.700000 0.400000 0
0.800000 0.400000 0
0.900000 0.400000 0
1.000000 0.400000 0
1.100000 0.400000 0
1.200000 0.400000 0
1.300000 0.400000 0
1.400000 0.400000 0
1.500000 0.400000 0
1.600000 0.400000 0
1.700000 0.400000 0
1.800000 0.400000 0
1.900000 0.400000 0
2.000000 0.400000 0
2.100000 0.400000 0
2.200000 0.400000 0
2.300000 0.400000 0
2.400000 0.400000 0
2.500000 0.400000 0
2.600000 0.400000 0
2.700000 0.400000 0
2.800000 0.400000 0
2.900000 0.400000 0
3.000000 0.400000 0
3.100000 0.400000 0
3.200000 0.400000 0
3.300000 0.400000 0
3.400000 0.400000 0
3.500000 0.400000 0
3.600000 0.400000 0
3.700000 0.400000 0
3.800000 0.400000 0
3.900000 0.400000 0
4.000000 0.400000 0
4.100000 0.400000 0
4.200000 0.400000 0
4.300000 0.400000 0
4.400000 0.400000 0
4.500000 0.400000 0
4.600000 0.400000 0
4.700000 0.400000 0
4.800000 0.400000 0
4.900000 0.400000 0
5.000000 0.400000 0
5.100000 0.400000 0
5.200000 0.400000 0
5.300000 0.400000 0
5.400000 0.400000 0
5.500000 0.400000 0
5.600000 0.400000 0
5.700000 0.400000 0
5.800000 0.400000 0
5.900000 0.400000 0
6.000000 0.400000 0
6.100000 0.400000 0
6.200000 0.400000 0
6.300000 0.400000 0
6.400000 0.400000 0
6.500000 0.400000 0
6.600000 0.400000 0
6.700000 0.400000 0
6.800000 0.400000 0
6.900000 0.400000 0
7.000000 0.400000 0
7.100000 0.400000 0
7.200000 0.400000 0
7.300000 0.400000 0
7.400000 0.400000 0
7.500000 0.400000 0
7.600000 0.400000 0
7.700000 0.400000 0
7.800000 0.400000 0
7.900000 0.400000 0
8.000000 0.400000 0
8.100000 0.400000 0
8.200000 0.400000 0
8.300000 0.400000 0
8.400000 0.400000 0
8.500000 0.400000 0
8.600000 0.400000 0
[...]
POINT_DATA 2121 

VECTORS velocity float
0.500000 0.000000 0
-0.000002 0.000000 0
-0.000006 0.000000 0
-0.000010 0.000000 0
-0.000012 0.000000 0
-0.000009 0.000000 0
0.000002 0.000000 0
0.000025 0.000000 0
0.000063 0.000000 0
0.000121 0.000000 0
0.000199 0.000000 0
0.000294 0.000000 0
0.000398 0.000000 0
0.000498 0.000000 0
0.000574 0.000000 0
0.000604 0.000000 0
0.000569 0.000000 0
0.000449 0.000000 0
0.000235 0.000000 0
-0.000076 0.000000 0
-0.000476 0.000000 0
-0.000945 0.000000 0
-0.001448 0.000000 0
-0.001935 0.000000 0
-0.002323 0.000000 0
-0.002512 0.000000 0
-0.002417 0.000000 0
-0.002014 0.000000 0
-0.001357 0.000000 0
-0.000535 0.000000 0
0.000353 0.000000 0
0.001216 0.000000 0
0.001984 0.000000 0
0.002611 0.000000 0
0.003075 0.000000 0
0.003362 0.000000 0
0.003468 0.000000 0
0.003391 0.000000 0
0.003129 0.000000 0
0.002680 0.000000 0
0.002042 0.000000 0
0.001204 0.000000 0
0.000152 0.000000 0
-0.001095 0.000000 0
-0.002414 0.000000 0
-0.003702 0.000000 0
-0.004838 0.000000 0
-0.005679 0.000000 0
-0.006071 0.000000 0
-0.005888 0.000000 0
-0.005075 0.000000 0
-0.003702 0.000000 0
-0.001988 0.000000 0
-0.000233 0.000000 0
0.001413 0.000000 0
0.002860 0.000000 0
0.004035 0.000000 0
0.004892 0.000000 0
0.005414 0.000000 0
0.005607 0.000000 0
0.005491 0.000000 0
0.005087 0.000000 0
0.004418 0.000000 0
0.003503 0.000000 0
0.002369 0.000000 0
0.001068 0.000000 0
-0.000284 0.000000 0
-0.001488 0.000000 0
-0.002511 0.000000 0
-0.003376 0.000000 0
-0.004107 0.000000 0
-0.004718 0.000000 0
-0.005193 0.000000 0
-0.005484 0.000000 0
-0.005505 0.000000 0
-0.005150 0.000000 0
-0.004336 0.000000 0
-0.003068 0.000000 0
-0.001490 0.000000 0
0.000184 0.000000 0
0.001847 0.000000 0
0.003402 0.000000 0
0.004740 0.000000 0
0.005748 0.000000 0
0.006322 0.000000 0
0.006379 0.000000 0
0.005881 0.000000 0
0.004868 0.000000 0
0.003471 0.000000 0
0.001895 0.000000 0
0.000379 0.000000 0
-0.000838 0.000000 0
-0.001659 0.000000 0
-0.002192 0.000000 0
-0.002541 0.000000 0
-0.002786 0.000000 0
-0.002982 0.000000 0
-0.003158 0.000000 0
-0.003325 0.000000 0
-0.003481 0.000000 0
-0.003746 0.000000 0
1.000000 0.000002 0
1.002675 -0.004870 0
1.010993 -0.010552 0
1.025359 -0.016722 0
1.046202 -0.023160 0
1.073777 -0.029469 0
1.107841 -0.034956 0
1.147241 -0.038669 0
1.189606 -0.039626 0
1.231220 -0.037433 0
1.268627 -0.032594 0
1.299589 -0.026060 0
1.323044 -0.018742 0
1.338736 -0.011340 0
1.346957 -0.004385 0
1.348427 0.001706 0
1.344208 0.006626 0
1.335634 0.010149 0
1.324244 0.012127 0
1.311687 0.012517 0
1.299606 0.011388 0
1.289507 0.008937 0
1.282643 0.005480 0
1.279891 0.001474 0
1.281581 -0.002406 0
1.287235 -0.005301 0
1.295404 -0.006432 0
1.303832 -0.005395 0
1.310003 -0.002324 0
1.311839 0.002257 0
1.308111 0.007671 0
1.298428 0.013240 0
1.283058 0.018409 0
1.262724 0.022795 0
1.238423 0.026164 0
1.211293 0.028389 0
1.182543 0.029406 0
1.153409 0.029184 0
1.125145 0.027708 0
1.099009 0.024962 0
1.076253 0.020919 0
1.058106 0.015506 0
1.045739 0.008641 0
1.040203 0.000498 0
1.042365 -0.008302 0
1.052775 -0.016974 0
1.071411 -0.024735 0
1.097429 -0.030697 0
1.129048 -0.033957 0
1.163594 -0.033775 0
1.197657 -0.029810 0
1.227432 -0.022393 0
1.249362 -0.012672 0
1.260962 -0.002222 0
1.261489 0.007816 0
1.251712 0.016840 0
1.233046 0.024390 0
1.207293 0.030152 0
1.176460 0.033969 0
1.142605 0.035811 0
1.107734 0.035732 0
1.073745 0.033816 0
1.042385 0.030144 0
1.015212 0.024805 0
0.993498 0.017954 0
0.978105 0.009932 0
0.969389 0.001495 0
0.967266 -0.006322 0
0.971306 -0.012959 0
0.980878 -0.018441 0
0.995339 -0.022911 0
1.014090 -0.026470 0
1.036569 -0.029093 0
1.062153 -0.030564 0
1.089961 -0.030472 0
1.118642 -0.028288 0
1.146244 -0.023587 0
1.170286 -0.016377 0
1.188040 -0.007351 0
1.197079 0.002431 0
1.196100 0.012178 0
1.185299 0.021344 0
1.165603 0.029334 0
1.138547 0.035515 0
1.106211 0.039278 0
1.071117 0.040105 0
1.036039 0.037712 0
1.003690 0.032227 0
0.976315 0.024316 0
0.955309 0.015130 0
0.941042 0.006087 0
0.933014 -0.001398 0
0.930248 -0.006617 0
0.931515 -0.009849 0
0.935578 -0.011681 0
0.941482 -0.012573 0
0.948571 -0.012805 0
0.956387 -0.012459 0
0.964506 -0.011408 0
0.972366 -0.008819 0
0.978150 -0.007226 0
1.000000 0.000004 0
1.002995 -0.011008 0
1.011778 -0.022694 0
1.026712 -0.035220 0
1.048455 -0.048429 0
1.077699 -0.061649 0
1.114765 -0.073475 0
1.158899 -0.081775 0
1.207695 -0.083989 0
1.255245 -0.079031 0
1.296776 -0.068380 0
1.330108 -0.054428 0
1.354715 -0.039157 0
1.370760 -0.023922 0
1.378744 -0.009700 0
1.379535 0.002739 0
1.374288 0.012783 0
1.364428 0.019955 0
1.351623 0.023938 0
1.337680 0.024629 0
1.324408 0.022170 0
1.313473 0.016953 0
1.306286 0.009606 0
1.303954 0.001052 0
1.307137 -0.007354 0
1.315574 -0.013833 0
1.327659 -0.016607 0
1.340498 -0.014611 0
1.350692 -0.008019 0
1.355531 0.001880 0
1.353765 0.013399 0
1.345242 0.025041 0
1.330517 0.035692 0
1.310554 0.044623 0
1.286505 0.051419 0
1.259581 0.055868 0
1.230999 0.057872 0
1.201966 0.057386 0
1.173681 0.054389 0
1.147322 0.048881 0
1.124027 0.040892 0
1.104841 0.030502 0
1.090657 0.017892 0
1.082203 0.003362 0
1.080252 -0.012583 0
1.085626 -0.029057 0
1.098738 -0.044665 0
1.119350 -0.057649 0
1.146563 -0.066177 0
1.178851 -0.068620 0
1.213901 -0.063850 0
1.248421 -0.051717 0
1.278271 -0.033542 0
1.299196 -0.012140 0
1.308322 0.009237 0
1.305728 0.028430 0
1.293062 0.044406 0
1.272348 0.056573 0
1.245761 0.064675 0
1.215462 0.068713 0
1.183489 0.068847 0
1.151675 0.065336 0
1.121590 0.058520 0
1.094461 0.048875 0
1.071105 0.037095 0
1.051900 0.024097 0
1.036881 0.010826 0
1.026082 -0.001929 0
1.019686 -0.013623 0
1.017679 -0.024044 0
1.019964 -0.033223 0
1.026523 -0.041241 0
1.037492 -0.048073 0
1.053080 -0.053401 0
1.073287 -0.056497 0
1.097578 -0.056291 0
1.124697 -0.051652 0
1.152618 -0.041803 0
1.178582 -0.026800 0
1.199298 -0.008065 0
1.211759 0.011775 0
1.214704 0.030492 0
1.208702 0.046748 0
1.194991 0.059389 0
1.175262 0.067426 0
1.151462 0.070168 0
1.125558 0.067424 0
1.099302 0.059722 0
1.074061 0.048380 0
1.050762 0.035272 0
1.029965 0.022294 0
1.012031 0.010793 0
0.997320 0.001497 0
0.985865 -0.005330 0
0.977304 -0.009967 0
0.971168 -0.012994 0
0.967154 -0.014906 0
0.965169 -0.015936 0
0.965199 -0.015980 0
0.967133 -0.013645 0
0.970445 -0.012218 0
1.000000 0.000006 0
1.002595 -0.016657 0
1.010559 -0.034272 0
1.024546 -0.053404 0
1.045719 -0.074152 0
1.075633 -0.095783 0
1.115845 -0.116160 0
1.166770 -0.131603 0
1.227090 -0.135976 0
1.283972 -0.126518 0
1.330197 -0.107462 0
1.364842 -0.084003 0
1.389025 -0.059398 0
1.403742 -0.035373 0
1.409641 -0.013163 0
1.407700 0.006158 0
1.399096 0.021728 0
1.385370 0.032810 0
1.368412 0.038872 0
1.350323 0.039727 0
1.333216 0.035591 0
1.319021 0.027055 0
1.309355 0.014996 0
1.305593 0.000619 0
1.309026 -0.014031 0
1.319995 -0.025828 0
1.336854 -0.031361 0
1.355773 -0.028433 0
1.371738 -0.017362 0
1.380542 -0.000820 0
1.380618 0.017955 0
1.372376 0.036482 0
1.356978 0.053092 0
1.335869 0.066802 0
1.310493 0.077133 0
1.282181 0.083891 0
1.252153 0.087016 0
1.221551 0.086497 0
1.191473 0.082347 0
1.162987 0.074612 0
1.137116 0.063395 0
1.114796 0.048871 0
1.096817 0.031275 0
1.083761 0.010898 0
1.076015 -0.011729 0
1.073979 -0.035465 0
1.078019 -0.058464 0
1.088424 -0.078527 0
1.105562 -0.093464 0
1.129789 -0.101118 0
1.160714 -0.099384 0
1.196425 -0.086769 0
1.233172 -0.063453 0
1.265704 -0.032278 0
1.288451 0.001279 0
1.298066 0.032094 0
1.295648 0.057765 0
1.283376 0.077448 0
1.263597 0.090849 0
1.238596 0.098078 0
1.210462 0.099514 0
1.181004 0.095710 0
1.151693 0.087353 0
1.123641 0.075285 0
1.097634 0.060510 0
1.074194 0.044152 0
1.053621 0.027309 0
1.035939 0.010868 0
1.020969 -0.004561 0
1.008546 -0.018723 0
0.998903 -0.031759 0
0.992904 -0.044002 0
0.991808 -0.055654 0
0.996903 -0.066364 0
1.008897 -0.074974 0
1.027563 -0.079702 0
1.051771 -0.078630 0
1.079723 -0.070265 0
1.109159 -0.054034 0
1.137440 -0.030749 0
1.161440 -0.003231 0
1.178002 0.024399 0
1.186118 0.049044 0
1.186278 0.068953 0
1.179458 0.082804 0
1.166881 0.089806 0
1.149814 0.089869 0
1.129435 0.083721 0
1.106832 0.072854 0
1.083067 0.059223 0
1.059191 0.044816 0
1.036105 0.031244 0
1.014358 0.019547 0
0.994258 0.010165 0
0.976053 0.003012 0
0.959999 -0.002427 0
0.946511 -0.006808 0
0.936134 -0.010507 0
0.929358 -0.013374 0
0.926371 -0.014068 0
0.927565 -0.014703 0
1.000000 0.000009 0
1.002062 -0.021577 0
1.008554 -0.044649 0
1.020419 -0.070385 0
1.039445 -0.099520 0
1.068440 -0.131779 0
1.111218 -0.164616 0
1.171139 -0.193024 0
1.252692 -0.201195 0
1.321488 -0.182142 0
1.369164 -0.149254 0
1.400815 -0.113259 0
1.421472 -0.078060 0
1.433252 -0.044541 0
1.436206 -0.013661 0
1.430731 0.013280 0
1.417632 0.035109 0
1.398509 0.050635 0
1.375573 0.058981 0
1.351366 0.059820 0
1.328469 0.053468 0
1.309170 0.040810 0
1.295212 0.023029 0
1.287840 0.001376 0
1.288592 -0.021761 0
1.299337 -0.041667 0
1.319390 -0.052390 0
1.345018 -0.049499 0
1.369877 -0.032793 0
1.386728 -0.007005 0
1.391317 0.021560 0
1.384727 0.048676 0
1.369310 0.072194 0
1.347349 0.091103 0
1.320735 0.105102 0
1.290967 0.114204 0
1.259273 0.118498 0
1.226741 0.118061 0
1.194398 0.112948 0
1.163263 0.103234 0
1.134335 0.089078 0
1.108518 0.070796 0
1.086372 0.048923 0
1.067749 0.024160 0
1.051662 -0.002806 0
1.037076 -0.031066 0
1.024660 -0.059116 0
1.016806 -0.085196 0
1.016692 -0.107546 0
1.027294 -0.123777 0
1.049784 -0.130492 0
1.082979 -0.124181 0
1.123612 -0.102826 0
1.166678 -0.067423 0
1.205771 -0.023131 0
1.233999 0.021228 0
1.248240 0.059091 0
1.250243 0.088618 0
1.242295 0.109450 0
1.226714 0.121843 0
1.205674 0.126433 0
1.181090 0.124100 0
1.154565 0.115878 0
1.127378 0.102929 0
1.100490 0.086537 0
1.074520 0.068105 0
1.049665 0.049076 0
1.025675 0.030718 0
1.002111 0.013765 0
0.979021 -0.001982 0
0.957510 -0.017586 0
0.939922 -0.034151 0
0.929205 -0.052075 0
0.927347 -0.070494 0
0.934717 -0.087161 0
0.950368 -0.099169 0
0.972667 -0.103815 0
0.999747 -0.099194 0
1.029702 -0.084520 0
1.060594 -0.060350 0
1.090285 -0.028791 0
1.115919 0.005810 0
1.134639 0.038468 0
1.145805 0.066046 0
1.149633 0.086820 0
1.146697 0.099809 0
1.137740 0.104868 0
1.123600 0.102701 0
1.105196 0.094744 0
1.083527 0.082909 0
1.059600 0.069252 0
1.034305 0.055622 0
1.008361 0.043340 0
0.982455 0.032970 0
0.957478 0.024288 0
0.934635 0.016545 0
0.915234 0.008956 0
0.900354 0.001213 0
0.890548 -0.006221 0
0.885779 -0.011856 0
0.885973 -0.015596 0
1.000000 0.000011 0
1.001227 -0.025221 0
1.005228 -0.052634 0
1.013055 -0.084299 0
1.026920 -0.122177 0
1.050923 -0.167560 0
1.092155 -0.218864 0
1.160343 -0.273081 0
1.278527 -0.286329 0
1.352349 -0.242995 0
1.386510 -0.186792 0
1.403478 -0.136315 0
1.414177 -0.091838 0
1.421175 -0.050110 0
1.421776 -0.010647 0
1.413331 0.024729 0
1.395833 0.053947 0
1.370914 0.074865 0
1.341100 0.086011 0
1.309419 0.086828 0
1.279011 0.077784 0
1.252563 0.060308 0
1.231708 0.036321 0
1.216861 0.007234 0
1.208067 -0.025532 0
1.209043 -0.056631 0
1.222723 -0.077048 0
1.248829 -0.078925 0
1.282935 -0.059076 0
1.315734 -0.022266 0
1.335918 0.019951 0
1.339924 0.058485 0
1.332031 0.090466 0
1.315777 0.115373 0
1.293585 0.133510 0
1.267104 0.145348 0
1.237560 0.151237 0
1.206002 0.151367 0
1.173436 0.145821 0
1.140874 0.134671 0
1.109316 0.118135 0
1.079568 0.096829 0
1.051714 0.072040 0
1.024384 0.045604 0
0.994956 0.018939 0
0.961783 -0.008467 0
0.927269 -0.038199 0
0.898923 -0.070564 0
0.884551 -0.103957 0
0.887091 -0.134215 0
0.905573 -0.155074 0
0.937332 -0.160602 0
0.979070 -0.147157 0
1.026974 -0.114443 0
1.076419 -0.066048 0
1.121379 -0.010380 0
1.154668 0.041516 0
1.174442 0.083388 0
1.182301 0.114372 0
1.180169 0.134693 0
1.170032 0.145133 0
1.153767 0.146813 0
1.133034 0.141059 0
1.109198 0.129354 0
1.083208 0.113362 0
1.055450 0.094972 0
1.025741 0.076149 0
0.993773 0.058417 0
0.960066 0.042089 0
0.926792 0.025874 0
0.897500 0.007336 0
0.875797 -0.015701 0
0.864115 -0.043084 0
0.862913 -0.071881 0
0.870955 -0.097999 0
0.886408 -0.117655 0
0.907540 -0.128013 0
0.932872 -0.127304 0
0.961085 -0.114884 0
0.990893 -0.091337 0
1.020925 -0.058561 0
1.049534 -0.019959 0
1.073974 0.019155 0
1.092103 0.053954 0
1.103383 0.081908 0
1.107764 0.101695 0
1.105506 0.112961 0
1.097077 0.116262 0
1.083088 0.112922 0
1.064243 0.104814 0
1.041285 0.094033 0
1.015023 0.082479 0
0.986476 0.071392 0
0.957068 0.061043 0
0.928664 0.050828 0
0.903309 0.039812 0
0.882736 0.027468 0
0.867905 0.014175 0
0.858856 0.001195 0
0.854890 -0.009498 0
0.855019 -0.016123 0
1.000000 0.000014 0
1.000033 -0.026814 0
1.000339 -0.056481 0
1.001667 -0.092081 0
1.005887 -0.137392 0
1.017315 -0.197018 0
1.045695 -0.274040 0
1.110851 -0.379401 0
1.277907 -0.393206 0
1.325615 -0.290129 0
1.312823 -0.200387 0
1.296633 -0.140930 0
1.288549 -0.095761 0
1.290040 -0.052144 0
1.292846 -0.005821 0
1.285466 0.039219 0
1.267309 0.077523 0
1.239746 0.105365 0
1.205121 0.120471 0
1.166554 0.121906 0
1.127635 0.110320 0
1.091278 0.088109 0
1.058177 0.058727 0
1.027412 0.025013 0
0.999082 -0.013947 0
0.976870 -0.056328 0
0.972927 -0.092182 0
0.993348 -0.109715 0
1.035370 -0.099702 0
1.090028 -0.059992 0
1.143281 -0.002634 0
1.179823 0.052559 0
1.197721 0.096336 0
1.202663 0.129543 0
1.197915 0.153771 0
1.185397 0.170225 0
1.166497 0.179596 0
1.142429 0.182180 0
1.114322 0.178072 0
1.083098 0.167350 0
1.049050 0.150379 0
1.011243 0.128394 0
0.967630 0.104102 0
0.917115 0.080913 0
0.862659 0.059790 0
0.811748 0.036616 0
0.772573 0.003740 0
0.750360 -0.042482 0
0.745844 -0.095719 0
0.756188 -0.144804 0
0.778250 -0.180738 0
0.809902 -0.197684 0
0.849642 -0.192473 0
0.895766 -0.164778 0
0.945855 -0.117541 0
0.996490 -0.057027 0
1.042063 0.006021 0
1.076270 0.060980 0
1.098457 0.103718 0
1.109617 0.134106 0
1.111104 0.152831 0
1.104379 0.161093 0
1.090799 0.160441 0
1.071412 0.152749 0
1.046757 0.140280 0
1.016855 0.125568 0
0.981717 0.110748 0
0.942428 0.096388 0
0.902110 0.080742 0
0.865651 0.060579 0
0.837947 0.033405 0
0.821701 -0.000771 0
0.816510 -0.039196 0
0.820176 -0.077339 0
0.830325 -0.110661 0
0.845240 -0.135758 0
0.863898 -0.150283 0
0.885679 -0.152743 0
0.910036 -0.142545 0
0.936283 -0.120194 0
0.963522 -0.087436 0
0.990635 -0.047243 0
1.016053 -0.004105 0
1.037159 0.036632 0
1.052568 0.071154 0
1.061664 0.097680 0
1.064226 0.115549 0
1.060304 0.125113 0
1.050126 0.127573 0
1.034068 0.124707 0
1.012717 0.118466 0
0.987030 0.110424 0
0.958537 0.101290 0
0.929376 0.090777 0
0.901989 0.078041 0
0.878565 0.062467 0
0.860504 0.044354 0
0.848196 0.025087 0
0.841183 0.006788 0
0.838465 -0.008026 0
0.838787 -0.016801 0
1.000000 0.000017 0
0.998582 -0.025570 0
0.994276 -0.054272 0
0.986957 -0.089851 0
0.976794 -0.137829 0
0.965335 -0.207373 0
0.959005 -0.312404 0
0.980035 -0.505296 0
1.140976 -0.501096 0
1.124873 -0.277915 0
1.018090 -0.157814 0
0.958151 -0.112044 0
0.926601 -0.085249 0
0.925714 -0.054411 0
0.943220 -0.006076 0
0.951591 0.050263 0
0.945770 0.099663 0
0.925956 0.137049 0
0.891925 0.159199 0
0.843785 0.164309 0
0.783131 0.153055 0
0.714922 0.129761 0
0.648804 0.100183 0
0.596875 0.066325 0
0.568381 0.025006 0
0.565483 -0.030480 0
0.585594 -0.093531 0
0.626289 -0.141373 0
0.684996 -0.155761 0
0.758374 -0.130181 0
0.840561 -0.069849 0
0.918431 0.004040 0
0.976796 0.067621 0
1.014730 0.115173 0
1.037339 0.150772 0
1.047066 0.176761 0
1.045498 0.194200 0
1.033915 0.203538 0
1.013201 0.205148 0
0.983455 0.199939 0
0.943661 0.189985 0
0.892322 0.178245 0
0.830027 0.166163 0
0.762836 0.150570 0
0.702521 0.124302 0
0.661186 0.081614 0
0.644302 0.023184 0
0.647574 -0.043840 0
0.661635 -0.109791 0
0.680632 -0.166626 0
0.702951 -0.208793 0
0.729372 -0.231999 0
0.761304 -0.233027 0
0.799433 -0.210660 0
0.843019 -0.166777 0
0.889946 -0.106594 0
0.937027 -0.038269 0
0.978392 0.026989 0
1.009661 0.081020 0
1.030476 0.122041 0
1.041224 0.150366 0
1.042610 0.167114 0
1.035332 0.174022 0
1.019851 0.173390 0
0.996364 0.167913 0
0.965255 0.160007 0
0.928071 0.150571 0
0.888373 0.138019 0
0.851413 0.118861 0
0.822325 0.090032 0
0.804056 0.051281 0
0.796634 0.005732 0
0.797843 -0.041563 0
0.804647 -0.085700 0
0.814826 -0.123068 0
0.827247 -0.151234 0
0.841603 -0.168457 0
0.858033 -0.173447 0
0.876729 -0.165494 0
0.897611 -0.144828 0
0.920185 -0.112918 0
0.943596 -0.072495 0
0.966712 -0.027375 0
0.987662 0.017433 0
1.004398 0.057397 0
1.015838 0.090031 0
1.021341 0.114315 0
1.020573 0.130356 0
1.013451 0.139152 0
1.000184 0.142216 0
0.981419 0.141065 0
0.958426 0.136652 0
0.933153 0.129039 0
0.907981 0.117585 0
0.885218 0.101631 0
0.866535 0.081290 0
0.852683 0.057830 0
0.843562 0.033487 0
0.838528 0.010918 0
0.836707 -0.007109 0
0.837218 -0.017561 0
1.000000 0.000019 0
0.997169 -0.021100 0
0.988295 -0.044861 0
0.972030 -0.074602 0
0.945729 -0.115774 0
0.904647 -0.179233 0
0.840140 -0.288744 0
0.737151 -0.561376 0
0.552689 -0.538048 0
-0.000383 -0.167247 0
0.397542 -0.033668 0
0.323361 -0.049444 0
0.324299 -0.063327 0
0.362626 -0.068767 0
0.414139 -0.031701 0
0.457720 0.036665 0
0.476971 0.103155 0
0.475106 0.159207 0
0.449960 0.202638 0
0.401199 0.230695 0
0.333973 0.239180 0
0.261878 0.222431 0
0.205253 0.176770 0
0.180835 0.105432 0
0.193545 0.017439 0
0.235309 -0.073545 0
0.289080 -0.152992 0
0.347010 -0.209122 0
0.410037 -0.231793 0
0.481744 -0.215563 0
0.564014 -0.162696 0
0.654459 -0.083680 0
0.739926 0.000031 0
0.806260 0.068996 0
0.852647 0.121430 0
0.882194 0.162061 0
0.896217 0.192743 0
0.895444 0.214473 0
0.880037 0.228527 0
0.849721 0.236885 0
0.804827 0.241508 0
0.748654 0.242022 0
0.689649 0.233583 0
0.639991 0.208414 0
0.609804 0.161435 0
0.601888 0.094831 0
0.611705 0.017346 0
0.630447 -0.059821 0
0.650300 -0.128782 0
0.667921 -0.186125 0
0.683311 -0.229483 0
0.698665 -0.256042 0
0.717234 -0.262538 0
0.741885 -0.246498 0
0.773739 -0.208059 0
0.811701 -0.151040 0
0.853062 -0.082430 0
0.893993 -0.011659 0
0.928618 0.051629 0
0.954449 0.102537 0
0.970814 0.140692 0
0.977563 0.166981 0
0.974704 0.183194 0
0.962325 0.191712 0
0.940904 0.194871 0
0.912041 0.193856 0
0.879143 0.187626 0
0.847209 0.173041 0
0.821301 0.146784 0
0.804573 0.107931 0
0.797365 0.059091 0
0.797907 0.005437 0
0.803551 -0.047214 0
0.811736 -0.094326 0
0.820766 -0.133267 0
0.829868 -0.162541 0
0.839096 -0.181074 0
0.849105 -0.187875 0
0.860775 -0.182129 0
0.874750 -0.163656 0
0.891108 -0.133427 0
0.909301 -0.093776 0
0.928322 -0.048177 0
0.946828 -0.001060 0
0.962743 0.042971 0
0.974617 0.080730 0
0.981485 0.110807 0
0.982749 0.132996 0
0.978161 0.147955 0
0.967926 0.156732 0
0.952853 0.160216 0
0.934434 0.158683 0
0.914691 0.151727 0
0.895765 0.138704 0
0.879395 0.119479 0
0.866564 0.094993 0
0.857472 0.067319 0
0.851761 0.039233 0
0.848812 0.013634 0
0.847966 -0.006724 0
0.848765 -0.018447 0
1.000000 0.000020 0
0.996195 -0.013875 0
0.984172 -0.029137 0
0.961725 -0.047288 0
0.924236 -0.070451 0
0.862432 -0.101788 0
0.756503 -0.144911 0
0.563048 -0.217848 0
0.073234 0.000092 0
-0.531592 0.133807 0
0.000000 0.000076 0
-0.033218 -0.050090 0
-0.057791 -0.124518 0
-0.027598 -0.144254 0
-0.006731 -0.101174 0
0.028938 -0.012574 0
0.063495 0.082274 0
0.081539 0.164057 0
0.078000 0.233103 0
0.055483 0.280292 0
0.025115 0.292372 0
0.008635 0.258477 0
0.020908 0.181221 0
0.059099 0.078029 0
0.111166 -0.029473 0
0.162211 -0.126021 0
0.207114 -0.205237 0
0.246465 -0.262335 0
0.285312 -0.290500 0
0.330831 -0.284163 0
0.388670 -0.242569 0
0.460030 -0.171876 0
0.540760 -0.084185 0
0.617162 0.002448 0
0.676485 0.074834 0
0.717493 0.133187 0
0.740906 0.180946 0
0.746909 0.219714 0
0.735815 0.250866 0
0.709182 0.275144 0
0.671505 0.291048 0
0.631370 0.293418 0
0.599880 0.274822 0
0.585895 0.230410 0
0.591645 0.162400 0
0.612724 0.079708 0
0.641333 -0.005380 0
0.668590 -0.082440 0
0.690154 -0.147270 0
0.704430 -0.199643 0
0.711802 -0.239542 0
0.714632 -0.265927 0
0.717043 -0.276252 0
0.723866 -0.267171 0
0.738787 -0.236598 0
0.762737 -0.185923 0
0.793762 -0.120566 0
0.828204 -0.048572 0
0.861091 0.020559 0
0.887694 0.079840 0
0.906179 0.127246 0
0.915650 0.163218 0
0.915703 0.189255 0
0.906523 0.207186 0
0.889347 0.218192 0