# vtk DataFile Version 2.0
generated by CFD-lab course output (written by Tobias Neckel) 
ASCII

DATASET STRUCTURED_GRID
DIMENSIONS  101 21 1 
POINTS 2121 float

0.000000 0.000000 0
0.100000 0.000000 0
0.200000 0.000000 0
0.300000 0.000000 0
0.400000 0.000000 0
0.500000 0.000000 0
0.600000 0.000000 0
0.700000 0.000000 0
0.800000 0.000000 0
0.900000 0.000000 0
1.000000 0.000000 0
1.100000 0.000000 0
1.200000 0.000000 0
1.300000 0.000000 0
1.400000 0.000000 0
1.500000 0.000000 0
1.600000 0.000000 0
1.700000 0.000000 0
1.800000 0.000000 0
1.900000 0.000000 0
2.000000 0.000000 0
2.100000 0.000000 0
2.200000 0.000000 0
2.300000 0.000000 0
2.400000 0.000000 0
2.500000 0.000000 0
2.600000 0.000000 0
2.700000 0.000000 0
2.800000 0.000000 0
2.900000 0.000000 0
3.000000 0.000000 0
3.100000 0.000000 0
3.200000 0.000000 0
3.300000 0.000000 0
3.400000 0.000000 0
3.500000 0.000000 0
3.600000 0.000000 0
3.700000 0.000000 0
3.800000 0.000000 0
3.900000 0.000000 0
4.000000 0.000000 0
4.100000 0.000000 0
4.200000 0.000000 0
4.300000 0.000000 0
4.400000 0.000000 0
4.500000 0.000000 0
4.600000 0.000000 0
4.700000 0.000000 0
4.800000 0.000000 0
4.900000 0.000000 0
5.000000 0.000000 0
5.100000 0.000000 0
5.200000 0.000000 0
5.300000 0.000000 0
5.400000 0.000000 0
5.500000 0.000000 0
5.600000 0.000000 0
5.700000 0.000000 0
5.800000 0.000000 0
5.900000 0.000000 0
6.000000 0.000000 0
6.100000 0.000000 0
6.200000 0.000000 0
6.300000 0.000000 0
6.400000 0.000000 0
6.500000 0.000000 0
6.600000 0.000000 0
6.700000 0.000000 0
6.800000 0.000000 0
6.900000 0.000000 0
7.000000 0.000000 0
7.100000 0.000000 0
7.200000 0.000000 0
7.300000 0.000000 0
7.400000 0.000000 0
7.500000 0.000000 0
7.600000 0.000000 0
7.700000 0.000000 0
7.800000 0.000000 0
7.900000 0.000000 0
8.000000 0.000000 0
8.100000 0.000000 0
8.200000 0.000000 0
8.300000 0.000000 0
8.400000 0.000000 0
8.500000 0.000000 0
8.600000 0.000000 0
8.700000 0.000000 0
8.800000 0.000000 0
8.900000 0.000000 0
9.000000 0.000000 0
9.100000 0.000000 0
9.200000 0.000000 0
9.300000 0.000000 0
9.400000 0.000000 0
9.500000 0.000000 0
9.600000 0.000000 0
9.700000 0.000000 0
9.800000 0.000000 0
9.900000 0.000000 0
10.000000 0.000000 0
0.000000 0.100000 0
0.100000 0.100000 0
0.200000 0.100000 0
0.300000 0.100000 0
0.400000 0.100000 0
0.500000 0.100000 0
0.600000 0.100000 0
0.700000 0.100000 0
0.800000 0.100000 0
0.900000 0.100000 0
1.000000 0.100000 0
1.100000 0.100000 0
1.200000 0.100000 0
1.300000 0.100000 0
1.400000 0.100000 0
1.500000 0.100000 0
1.600000 0.100000 0
1.700000 0.100000 0
1.800000 0.100000 0
1.900000 0.100000 0
2.000000 0.100000 0
2.100000 0.100000 0
2.200000 0.100000 0
2.300000 0.100000 0
2.400000 0.100000 0
2.500000 0.100000 0
2.600000 0.100000 0
2.700000 0.100000 0
2.800000 0.100000 0
2.900000 0.100000 0
3.000000 0.100000 0
3.100000 0.100000 0
3.200000 0.100000 0
3.300000 0.100000 0
3.400000 0.100000 0
3.500000 0.100000 0
3.600000 0.100000 0
3.700000 0.100000 0
3.800000 0.100000 0
3.900000 0.100000 0
4.000000 0.100000 0
4.100000 0.100000 0
4.200000 0.100000 0
4.300000 0.100000 0
4.400000 0.100000 0
4.500000 0.100000 0
4.600000 0.100000 0
4.700000 0.100000 0
4.800000 0.100000 0
4.900000 0.100000 0
5.000000 0.100000 0
5.100000 0.100000 0
5.200000 0.100000 0
5.300000 0.100000 0
5.400000 0.100000 0
5.500000 0.100000 0
5.600000 0.100000 0
5.700000 0.100000 0
5.800000 0.100000 0
5.900000 0.100000 0
6.000000 0.100000 0
6.100000 0.100000 0
6.200000 0.100000 0
6.300000 0.100000 0
6.400000 0.100000 0
6.500000 0.100000 0
6.600000 0.100000 0
6.700000 0.100000 0
6.800000 0.100000 0
6.900000 0.100000 0
7.000000 0.100000 0
7.100000 0.100000 0
7.200000 0.100000 0
7.300000 0.100000 0
7.400000 0.100000 0
7.500000 0.100000 0
7.600000 0.100000 0
7.700000 0.100000 0
7.800000 0.100000 0
7.900000 0.100000 0
8.000000 0.100000 0
8.100000 0.100000 0
8.200000 0.100000 0
8.300000 0.100000 0
8.400000 0.100000 0
8.500000 0.100000 0
8.600000 0.100000 0
8.700000 0.100000 0
8.800000 0.100000 0
8.900000 0.100000 0
9.000000 0.100000 0
9.100000 0.100000 0
9.200000 0.100000 0
9.300000 0.100000 0
9.400000 0.100000 0
9.500000 0.100000 0
9.600000 0.100000 0
9.700000 0.100000 0
9.800000 0.100000 0
9.900000 0.100000 0
10.000000 0.100000 0
0.000000 0.200000 0
0.100000 0.200000 0
0.200000 0.200000 0
0.300000 0.200000 0
0.400000 0.200000 0
0.500000 0.200000 0
0.600000 0.200000 0
0.700000 0.200000 0
0.800000 0.200000 0
0.900000 0.200000 0
1.000000 0.200000 0
1.100000 0.200000 0
1.200000 0.200000 0
1.300000 0.200000 0
1.400000 0.200000 0
1.500000 0.200000 0
1.600000 0.200000 0
1.700000 0.200000 0
1.800000 0.200000 0
1.900000 0.200000 0
2.000000 0.200000 0
2.100000 0.200000 0
2.200000 0.200000 0
2.300000 0.200000 0
2.400000 0.200000 0
2.500000 0.200000 0
2.600000 0.200000 0
2.700000 0.200000 0
2.800000 0.200000 0
2.900000 0.200000 0
3.000000 0.200000 0
3.100000 0.200000 0
3.200000 0.200000 0
3.300000 0.200000 0
3.400000 0.200000 0
3.500000 0.200000 0
3.600000 0.200000 0
3.700000 0.200000 0
3.800000 0.200000 0
3.900000 0.200000 0
4.000000 0.200000 0
4.100000 0.200000 0
4.200000 0.200000 0
4.300000 0.200000 0
4.400000 0.200000 0
4.500000 0.200000 0
4.600000 0.200000 0
4.700000 0.200000 0
4.800000 0.200000 0
4.900000 0.200000 0
5.000000 0.200000 0
5.100000 0.200000 0
5.200000 0.200000 0
5.300000 0.200000 0
5.400000 0.200000 0
5.500000 0.200000 0
5.600000 0.200000 0
5.700000 0.200000 0
5.800000 0.200000 0
5.900000 0.200000 0
6.000000 0.200000 0
6.100000 0.200000 0
6.200000 0.200000 0
6.300000 0.200000 0
6.400000 0.200000 0
6.500000 0.200000 0
6.600000 0.200000 0
6.700000 0.200000 0
6.800000 0.200000 0
6.900000 0.200000 0
7.000000 0.200000 0
7.100000 0.200000 0
7.200000 0.200000 0
7.300000 0.200000 0
7.400000 0.200000 0
7.500000 0.200000 0
7.600000 0.200000 0
7.700000 0.200000 0
7.800000 0.200000 0
7.900000 0.200000 0
8.000000 0.200000 0
8.100000 0.200000 0
8.200000 0.200000 0
8.300000 0.200000 0
8.400000 0.200000 0
8.500000 0.200000 0
8.600000 0.200000 0
8.700000 0.200000 0
8.800000 0.200000 0
8.900000 0.200000 0
9.000000 0.200000 0
9.100000 0.200000 0
9.200000 0.200000 0
9.300000 0.200000 0
9.400000 0.200000 0
9.500000 0.200000 0
9.600000 0.200000 0
9.700000 0.200000 0
9.800000 0.200000 0
9.900000 0.200000 0
10.000000 0.200000 0
0.000000 0.300000 0
0.100000 0.300000 0
0.200000 0.300000 0
0.300000 0.300000 0
0.400000 0.300000 0
0.500000 0.300000 0
0.600000 0.300000 0
0.700000 0.300000 0
0.800000 0.300000 0
0.900000 0.300000 0
1.000000 0.300000 0
1.100000 0.300000 0
1.200000 0.300000 0
1.300000 0.300000 0
1.400000 0.300000 0
1.500000 0.300000 0
1.600000 0.300000 0
1.700000 0.300000 0
1.800000 0.300000 0
1.900000 0.300000 0
2.000000 0.300000 0
2.100000 0.300000 0
2.200000 0.300000 0
2.300000 0.300000 0
2.400000 0.300000 0
2.500000 0.300000 0
2.600000 0.300000 0
2.700000 0.300000 0
2.800000 0.300000 0
2.900000 0.300000 0
3.000000 0.300000 0
3.100000 0.300000 0
3.200000 0.300000 0
3.300000 0.300000 0
3.400000 0.300000 0
3.500000 0.300000 0
3.600000 0.300000 0
3.700000 0.300000 0
3.800000 0.300000 0
3.900000 0.300000 0
4.000000 0.300000 0
4.100000 0.300000 0
4.200000 0.300000 0
4.300000 0.300000 0
4.400000 0.300000 0
4.500000 0.300000 0
4.600000 0.300000 0
4.700000 0.300000 0
4.800000 0.300000 0
4.900000 0.300000 0
5.000000 0.300000 0
5.100000 0.300000 0
5.200000 0.300000 0
5.300000 0.300000 0
5.400000 0.300000 0
5.500000 0.300000 0
5.600000 0.300000 0
5.700000 0.300000 0
5.800000 0.300000 0
5.900000 0.300000 0
6.000000 0.300000 0
6.100000 0.300000 0
6.200000 0.300000 0
6.300000 0.300000 0
6.400000 0.300000 0
6.500000 0.300000 0
6.600000 0.300000 0
6.700000 0.300000 0
6.800000 0.300000 0
6.900000 0.300000 0
7.000000 0.300000 0
7.100000 0.300000 0
7.200000 0.300000 0
7.300000 0.300000 0
7.400000 0.300000 0
7.500000 0.300000 0
7.600000 0.300000 0
7.700000 0.300000 0
7.800000 0.300000 0
7.900000 0.300000 0
8.000000 0.300000 0
8.100000 0.300000 0
8.200000 0.300000 0
8.300000 0.300000 0
8.400000 0.300000 0
8.500000 0.300000 0
8.600000 0.300000 0
8.700000 0.300000 0
8.800000 0.300000 0
8.900000 0.300000 0
9.000000 0.300000 0
9.100000 0.300000 0
9.200000 0.300000 0
9.300000 0.300000 0
9.400000 0.300000 0
9.500000 0.300000 0
9.600000 0.300000 0
9.700000 0.300000 0
9.800000 0.300000 0
9.900000 0.300000 0
10.000000 0.300000 0
0.000000 0.400000 0
0.100000 0.400000 0
0.200000 0.400000 0
0.300000 0.400000 0
0.400000 0.400000 0
0.500000 0.400000 0
0.600000 0.400000 0
0.700000 0.400000 0
0.800000 0.400000 0
0.900000 0.400000 0
1.000000 0.400000 0
1.100000 0.400000 0
1.200000 0.400000 0
1.300000 0.400000 0
1.400000 0.400000 0
1.500000 0.400000 0
1.600000 0.400000 0
1.700000 0.400000 0
1.800000 0.400000 0
1.900000 0.400000 0
2.000000 0.400000 0
2.100000 0.400000 0
2.200000 0.400000 0
2.300000 0.400000 0
2.400000 0.400000 0
2.500000 0.400000 0
2.600000 0.400000 0
2.700000 0.400000 0
2.800000 0.400000 0
2.900000 0.400000 0
3.000000 0.400000 0
3.100000 0.400000 0
3.200000 0.400000 0
3.300000 0.400000 0
3.400000 0.400000 0
3.500000 0.400000 0
3.600000 0.400000 0
3.700000 0.400000 0
3.800000 0.400000 0
3.900000 0.400000 0
4.000000 0.400000 0
4.100000 0.400000 0
4.200000 0.400000 0
4.300000 0.400000 0
4.400000 0.400000 0
4.500000 0.400000 0
4.600000 0.400000 0
4.700000 0.400000 0
4.800000 0.400000 0
4.900000 0.400000 0
5.000000 0.400000 0
5.100000 0.400000 0
5.200000 0.400000 0
5.300000 0.400000 0
5.400000 0.400000 0
5.500000 0.400000 0
5.600000 0.400000 0
5.700000 0.400000 0
5.800000 0.400000 0
5.900000 0.400000 0
6.000000 0.400000 0
6.100000 0.400000 0
6.200000 0.400000 0
6.300000 0.400000 0
6.400000 0.400000 0
6.500000 0.400000 0
6.600000 0.400000 0
6.700000 0.400000 0
6.800000 0.400000 0
6.900000 0.400000 0
7.000000 0.400000 0
7.100000 0.400000 0
7.200000 0.400000 0
7.300000 0.400000 0
7.400000 0.400000 0
7.500000 0.400000 0
7.600000 0.400000 0
7.700000 0.400000 0
7.800000 0.400000 0
7.900000 0.400000 0
8.000000 0.400000 0
8.100000 0.400000 0
8.200000 0.400000 0
8.300000 0.400000 0
8.400000 0.400000 0
8.500000 0.400000 0
8.600000 0.400000 0
[...]
POINT_DATA 2121 

VECTORS velocity float
0.500000 0.000000 0
-0.000004 0.000000 0
-0.000015 0.000000 0
-0.000033 0.000000 0
-0.000055 0.000000 0
-0.000081 0.000000 0
-0.000110 0.000000 0
-0.000136 0.000000 0
-0.000159 0.000000 0
-0.000169 0.000000 0
-0.000152 0.000000 0
-0.000103 0.000000 0
-0.000013 0.000000 0
0.000127 0.000000 0
0.000318 0.000000 0
0.000548 0.000000 0
0.000795 0.000000 0
0.001031 0.000000 0
0.001223 0.000000 0
0.001340 0.000000 0
0.001353 0.000000 0
0.001243 0.000000 0
0.000998 0.000000 0
0.000614 0.000000 0
0.000099 0.000000 0
-0.000529 0.000000 0
-0.001246 0.000000 0
-0.002016 0.000000 0
-0.002746 0.000000 0
-0.003313 0.000000 0
-0.003577 0.000000 0
-0.003434 0.000000 0
-0.002862 0.000000 0
-0.001952 0.000000 0
-0.000871 0.000000 0
0.000252 0.000000 0
0.001310 0.000000 0
0.002233 0.000000 0
0.002976 0.000000 0
0.003520 0.000000 0
0.003861 0.000000 0
0.004003 0.000000 0
0.003949 0.000000 0
0.003702 0.000000 0
0.003264 0.000000 0
0.002629 0.000000 0
0.001787 0.000000 0
0.000723 0.000000 0
-0.000549 0.000000 0
-0.001891 0.000000 0
-0.003212 0.000000 0
-0.004429 0.000000 0
-0.005443 0.000000 0
-0.006139 0.000000 0
-0.006392 0.000000 0
-0.006089 0.000000 0
-0.005170 0.000000 0
-0.003695 0.000000 0
-0.001884 0.000000 0
-0.000040 0.000000 0
0.001694 0.000000 0
0.003230 0.000000 0
0.004483 0.000000 0
0.005394 0.000000 0
0.005931 0.000000 0
0.006088 0.000000 0
0.005876 0.000000 0
0.005318 0.000000 0
0.004445 0.000000 0
0.003303 0.000000 0
0.001961 0.000000 0
0.000531 0.000000 0
-0.000789 0.000000 0
-0.001863 0.000000 0
-0.002722 0.000000 0
-0.003417 0.000000 0
-0.003991 0.000000 0
-0.004467 0.000000 0
-0.004836 0.000000 0
-0.005051 0.000000 0
-0.005028 0.000000 0
-0.004666 0.000000 0
-0.003880 0.000000 0
-0.002668 0.000000 0
-0.001150 0.000000 0
0.000486 0.000000 0
0.002146 0.000000 0
0.003742 0.000000 0
0.005158 0.000000 0
0.006268 0.000000 0
0.006944 0.000000 0
0.007079 0.000000 0
0.006626 0.000000 0
0.005638 0.000000 0
0.004283 0.000000 0
0.002806 0.000000 0
0.001465 0.000000 0
0.000521 0.000000 0
-0.000025 0.000000 0
-0.000286 0.000000 0
-0.000426 0.000000 0
1.000000 0.000003 0
1.002557 -0.004677 0
1.010573 -0.010186 0
1.024479 -0.016231 0
1.044763 -0.022616 0
1.071760 -0.028976 0
1.105345 -0.034657 0
1.144523 -0.038747 0
1.187132 -0.040302 0
1.229708 -0.038928 0
1.269027 -0.035087 0
1.303017 -0.029647 0
1.330691 -0.023368 0
1.351685 -0.016724 0
1.365891 -0.009969 0
1.373295 -0.003294 0
1.374031 0.003089 0
1.368458 0.008947 0
1.357215 0.014018 0
1.341242 0.018041 0
1.321745 0.020793 0
1.300135 0.022122 0
1.277933 0.021961 0
1.256684 0.020323 0
1.237866 0.017301 0
1.222823 0.013048 0
1.212712 0.007760 0
1.208459 0.001719 0
1.210630 -0.004494 0
1.219145 -0.009974 0
1.232931 -0.013710 0
1.249769 -0.014853 0
1.266579 -0.013047 0
1.280135 -0.008648 0
1.287902 -0.002575 0
1.288532 0.004211 0
1.281795 0.010960 0
1.268210 0.017091 0
1.248763 0.022227 0
1.224689 0.026163 0
1.197313 0.028814 0
1.167972 0.030161 0
1.137981 0.030210 0
1.108630 0.028973 0
1.081189 0.026448 0
1.056913 0.022604 0
1.037016 0.017372 0
1.022636 0.010677 0
1.014753 0.002671 0
1.014128 -0.005997 0
1.021244 -0.014554 0
1.036178 -0.022416 0
1.058454 -0.028984 0
1.086961 -0.033603 0
1.119944 -0.035600 0
1.154997 -0.034383 0
1.189081 -0.029644 0
1.218720 -0.021673 0
1.240506 -0.011568 0
1.251889 -0.000844 0
1.251980 0.009429 0
1.241510 0.018676 0
1.221893 0.026419 0
1.194966 0.032286 0
1.162844 0.036048 0
1.127764 0.037603 0
1.091971 0.036949 0
1.057617 0.034149 0
1.026672 0.029324 0
1.000789 0.022700 0
0.981149 0.014677 0
0.968318 0.005953 0
0.962251 -0.002341 0
0.962494 -0.009310 0
0.968265 -0.014847 0
0.978757 -0.019209 0
0.993288 -0.022666 0
1.011331 -0.025393 0
1.032470 -0.027399 0
1.056258 -0.028489 0
1.081998 -0.028264 0
1.108541 -0.026212 0
1.134168 -0.021913 0
1.156655 -0.015336 0
1.173519 -0.007058 0
1.182491 0.002007 0
1.182255 0.011158 0
1.172877 0.019884 0
1.155145 0.027577 0
1.130468 0.033543 0
1.100855 0.037063 0
1.068822 0.037515 0
1.037166 0.034585 0
1.008592 0.028507 0
0.985238 0.020169 0
0.968265 0.010971 0
0.957705 0.002593 0
0.952646 -0.003340 0
0.951534 -0.006031 0
0.952246 -0.003553 0
0.950372 -0.000694 0
1.000000 0.000006 0
1.002875 -0.010605 0
1.011336 -0.021936 0
1.025774 -0.034196 0
1.046894 -0.047279 0
1.075455 -0.060576 0
1.111882 -0.072757 0
1.155577 -0.081785 0
1.204357 -0.085185 0
1.252630 -0.081890 0
1.295890 -0.073301 0
1.332182 -0.061658 0
1.361175 -0.048663 0
1.383091 -0.035197 0
1.398088 -0.021609 0
1.406131 -0.008142 0
1.407231 0.004833 0
1.401672 0.016808 0
1.390060 0.027207 0
1.373377 0.035459 0
1.352920 0.041095 0
1.330210 0.043799 0
1.306884 0.043437 0
1.284587 0.040054 0
1.264872 0.033851 0
1.249115 0.025149 0
1.238512 0.014363 0
1.234114 0.002087 0
1.236819 -0.010676 0
1.247006 -0.022291 0
1.263877 -0.030613 0
1.285076 -0.033638 0
1.306906 -0.030361 0
1.325208 -0.021319 0
1.336604 -0.008391 0
1.339522 0.006111 0
1.334104 0.020325 0
1.321254 0.033034 0
1.302277 0.043522 0
1.278607 0.051450 0
1.251659 0.056716 0
1.222775 0.059330 0
1.193218 0.059339 0
1.164192 0.056787 0
1.136847 0.051712 0
1.112267 0.044168 0
1.091419 0.034270 0
1.075078 0.022256 0
1.063798 0.008502 0
1.058082 -0.006496 0
1.058620 -0.022053 0
1.065881 -0.037212 0
1.079931 -0.050783 0
1.100447 -0.061488 0
1.126798 -0.068031 0
1.157917 -0.069131 0
1.191976 -0.063716 0
1.226126 -0.051419 0
1.256537 -0.033165 0
1.278948 -0.011471 0
1.290065 0.010380 0
1.289419 0.030087 0
1.278469 0.046544 0
1.259127 0.059048 0
1.233561 0.067201 0
1.204010 0.070871 0
1.172655 0.070144 0
1.141484 0.065297 0
1.112170 0.056827 0
1.085951 0.045521 0
1.063548 0.032467 0
1.045205 0.018894 0
1.030910 0.005821 0
1.020803 -0.006017 0
1.014924 -0.016266 0
1.013081 -0.025026 0
1.015106 -0.032575 0
1.021007 -0.039182 0
1.030992 -0.044925 0
1.045322 -0.049525 0
1.064007 -0.052278 0
1.086541 -0.052163 0
1.111771 -0.048105 0
1.137878 -0.039340 0
1.162409 -0.025822 0
1.182437 -0.008720 0
1.195250 0.009631 0
1.199556 0.027129 0
1.195789 0.042429 0
1.185038 0.054310 0
1.168839 0.061667 0
1.148976 0.063711 0
1.127238 0.060252 0
1.105197 0.051950 0
1.084072 0.040349 0
1.064702 0.027554 0
1.047610 0.015641 0
1.033179 0.006193 0
1.021697 0.000421 0
1.012868 0.001183 0
1.006554 0.003438 0
1.000000 0.000008 0
1.002470 -0.016028 0
1.010089 -0.033083 0
1.023527 -0.051780 0
1.043981 -0.072289 0
1.073051 -0.093960 0
1.112371 -0.114780 0
1.162485 -0.131227 0
1.222286 -0.137352 0
1.279394 -0.130454 0
1.326878 -0.114637 0
1.364075 -0.094932 0
1.392524 -0.074277 0
1.413740 -0.053639 0
1.428354 -0.033012 0
1.436084 -0.012441 0
1.436480 0.007543 0
1.429558 0.026112 0
1.415829 0.042307 0
1.396358 0.055176 0
1.372620 0.063955 0
1.346347 0.068153 0
1.319396 0.067578 0
1.293610 0.062334 0
1.270678 0.052776 0
1.252034 0.039412 0
1.238863 0.022768 0
1.232295 0.003420 0
1.233693 -0.017378 0
1.244196 -0.037026 0
1.263501 -0.051778 0
1.289327 -0.057883 0
1.317538 -0.053181 0
1.342764 -0.038345 0
1.359835 -0.016888 0
1.365936 0.006711 0
1.361598 0.029227 0
1.348573 0.048916 0
1.328828 0.064873 0
1.304206 0.076780 0
1.276304 0.084644 0
1.246475 0.088599 0
1.215893 0.088790 0
1.185611 0.085342 0
1.156609 0.078370 0
1.129793 0.068029 0
1.105973 0.054558 0
1.085810 0.038296 0
1.069754 0.019665 0
1.058018 -0.000819 0
1.050672 -0.022351 0
1.047951 -0.043725 0
1.050242 -0.063547 0
1.058234 -0.080466 0
1.072932 -0.093066 0
1.095080 -0.099558 0
1.124357 -0.097851 0
1.158913 -0.086233 0
1.195343 -0.064391 0
1.228978 -0.034373 0
1.254592 -0.001043 0
1.268255 0.030271 0
1.270178 0.056710 0
1.262111 0.077193 0
1.246122 0.091164 0
1.224351 0.098508 0
1.198854 0.099475 0
1.171461 0.094632 0
1.143694 0.084856 0
1.116725 0.071321 0
1.091420 0.055421 0
1.068398 0.038590 0
1.048022 0.022059 0
1.030315 0.006675 0
1.015170 -0.007125 0
1.002520 -0.019391 0
0.992738 -0.030592 0
0.986773 -0.041278 0
0.985837 -0.051712 0
0.990997 -0.061501 0
1.002675 -0.069479 0
1.020457 -0.073972 0
1.043205 -0.073245 0
1.069291 -0.065967 0
1.096769 -0.051610 0
1.123425 -0.030828 0
1.146638 -0.005953 0
1.163649 0.019353 0
1.173351 0.042102 0
1.176075 0.060498 0
1.172580 0.073130 0
1.163850 0.079121 0
1.150910 0.078369 0
1.134749 0.071677 0
1.116354 0.060668 0
1.096790 0.047437 0
1.077193 0.034120 0
1.058596 0.022576 0
1.041774 0.014283 0
1.027430 0.011594 0
1.017810 0.011593 0
1.000000 0.000011 0
1.001934 -0.020704 0
1.008059 -0.042986 0
1.019326 -0.068081 0
1.037531 -0.096799 0
1.065496 -0.128966 0
1.107055 -0.162194 0
1.165626 -0.191698 0
1.245764 -0.202087 0
1.313892 -0.186478 0
1.361775 -0.157983 0
1.394572 -0.127305 0
1.417978 -0.098330 0
1.435679 -0.071030 0
1.448991 -0.043957 0
1.456913 -0.016272 0
1.457397 0.011355 0
1.449547 0.037455 0
1.433634 0.060401 0
1.410878 0.078663 0
1.383029 0.091101 0
1.352122 0.097019 0
1.320332 0.096172 0
1.289809 0.088774 0
1.262464 0.075432 0
1.239764 0.056970 0
1.222668 0.034109 0
1.211807 0.007264 0
1.208046 -0.022572 0
1.213432 -0.052096 0
1.228964 -0.075745 0
1.253824 -0.087677 0
1.285500 -0.083798 0
1.319174 -0.063614 0
1.347722 -0.031563 0
1.363962 0.004347 0
1.365631 0.037688 0
1.355707 0.065803 0
1.337297 0.087887 0
1.312994 0.103973 0
1.284806 0.114445 0
1.254259 0.119739 0
1.222559 0.120200 0
1.190723 0.116068 0
1.159678 0.107528 0
1.130298 0.094800 0
1.103356 0.078250 0
1.079344 0.058474 0
1.058176 0.036293 0
1.039036 0.012586 0
1.020753 -0.011985 0
1.002996 -0.036779 0
0.987705 -0.061062 0
0.978344 -0.084173 0
0.978463 -0.104874 0
0.990148 -0.120554 0
1.013310 -0.127549 0
1.046059 -0.122406 0
1.085263 -0.103230 0
1.126839 -0.070720 0
1.165781 -0.028898 0
1.196244 0.014500 0
1.214401 0.052686 0
1.221071 0.083103 0
1.217932 0.104960 0
1.206891 0.118139 0
1.189855 0.123034 0
1.168589 0.120455 0
1.144631 0.111561 0
1.119270 0.097793 0
1.093526 0.080793 0
1.068099 0.062291 0
1.043285 0.043903 0
1.019016 0.026834 0
0.995234 0.011528 0
0.972501 -0.002594 0
0.952261 -0.016828 0
0.936754 -0.032280 0
0.928316 -0.049146 0
0.928239 -0.066359 0
0.936449 -0.081733 0
0.951890 -0.092688 0
0.973040 -0.096935 0
0.998267 -0.092898 0
1.025960 -0.079949 0
1.054527 -0.058582 0
1.082237 -0.030588 0
1.106814 0.000420 0
1.125738 0.030009 0
1.138228 0.055086 0
1.144328 0.073896 0
1.144374 0.085385 0
1.138878 0.089355 0
1.128503 0.086507 0
1.114087 0.078309 0
1.096656 0.066717 0
1.077358 0.053836 0
1.057371 0.041613 0
1.037932 0.031588 0
1.020483 0.025147 0
1.008684 0.022459 0
1.000000 0.000014 0
1.001102 -0.024092 0
1.004732 -0.050468 0
1.011937 -0.081247 0
1.024917 -0.118457 0
1.047736 -0.163485 0
1.087422 -0.214910 0
1.153619 -0.269930 0
1.269035 -0.285615 0
1.341055 -0.246465 0
1.373836 -0.195318 0
1.389126 -0.151137 0
1.398091 -0.115385 0
1.406389 -0.084654 0
1.416215 -0.054250 0
1.425811 -0.020850 0
1.429407 0.014905 0
1.423395 0.049870 0
1.407626 0.080972 0
1.383598 0.105776 0
1.353311 0.122707 0
1.318975 0.130849 0
1.282998 0.129893 0
1.247851 0.120205 0
1.215702 0.102826 0
1.187897 0.079215 0
1.164732 0.050732 0
1.145728 0.018047 0
1.129914 -0.019000 0
1.118361 -0.057944 0
1.115962 -0.092173 0
1.126482 -0.114419 0
1.151784 -0.118529 0
1.189783 -0.100567 0
1.233550 -0.061676 0
1.272106 -0.011199 0
1.294671 0.037481 0
1.300524 0.077250 0
1.294167 0.107585 0
1.279038 0.129269 0
1.257643 0.143377 0
1.231835 0.150844 0
1.203059 0.152324 0
1.172518 0.148220 0
1.141293 0.138792 0
1.110372 0.124349 0
1.080511 0.105511 0
1.051775 0.083475 0
1.022972 0.059973 0
0.991925 0.036605 0
0.957362 0.013691 0
0.921171 -0.010674 0
0.888861 -0.038891 0
0.867603 -0.071221 0
0.861484 -0.104868 0
0.870343 -0.134404 0
0.891974 -0.153762 0
0.923715 -0.158187 0
0.962868 -0.145172 0
1.006564 -0.114891 0
1.051477 -0.070449 0
1.093338 -0.018350 0
1.126272 0.031881 0
1.147674 0.073661 0
1.158313 0.105343 0
1.159504 0.126584 0
1.152780 0.137776 0
1.139685 0.139855 0
1.121647 0.134174 0
1.099872 0.122425 0
1.075221 0.106590 0
1.048115 0.088829 0
1.018660 0.071141 0
0.987155 0.054725 0
0.954848 0.039391 0
0.924302 0.023582 0
0.898772 0.005156 0
0.881034 -0.017331 0
0.872588 -0.043194 0
0.873337 -0.069631 0
0.882022 -0.093127 0
0.897040 -0.110558 0
0.916909 -0.119617 0
0.940365 -0.118882 0
0.966288 -0.107865 0
0.993606 -0.087099 0
1.021197 -0.058237 0
1.047730 -0.024145 0
1.071057 0.010691 0
1.089152 0.041910 0
1.101393 0.066986 0
1.107572 0.084573 0
1.107772 0.094240 0
1.102329 0.096467 0
1.091806 0.092513 0
1.076980 0.084166 0
1.058824 0.073404 0
1.038557 0.062000 0
1.017804 0.051169 0
0.998729 0.040840 0
0.985846 0.035111 0
1.000000 0.000017 0
0.999922 -0.025436 0
0.999884 -0.053816 0
1.000625 -0.088263 0
1.003981 -0.132598 0
1.014194 -0.191472 0
1.040853 -0.268073 0
1.103495 -0.373308 0
1.266364 -0.389522 0
1.311705 -0.291279 0
1.296410 -0.206054 0
1.275621 -0.151561 0
1.258364 -0.115595 0
1.248764 -0.089157 0
1.250117 -0.063383 0
1.262578 -0.029469 0
1.277288 0.013766 0
1.280849 0.059232 0
1.272975 0.100194 0
1.255396 0.132975 0
1.229741 0.155722 0
1.197770 0.167332 0
1.161752 0.167299 0
1.124435 0.156074 0
1.088256 0.135391 0
1.053622 0.107946 0
1.018063 0.076285 0
0.978940 0.042085 0
0.937398 0.004796 0
0.898393 -0.038145 0
0.872692 -0.083868 0
0.870312 -0.123497 0
0.892417 -0.147097 0
0.935354 -0.145380 0
0.993018 -0.113887 0
1.056620 -0.056775 0
1.113470 0.009269 0
1.151593 0.066304 0
1.171949 0.109370 0
1.178857 0.140495 0
1.175167 0.161646 0
1.163027 0.174321 0
1.144196 0.179515 0
1.120171 0.177831 0
1.092159 0.169671 0
1.060836 0.155580 0
1.025899 0.136846 0
0.985921 0.116012 0
0.939538 0.096144 0
0.888030 0.078199 0
0.837015 0.058773 0
0.794693 0.031726 0
0.767301 -0.007490 0
0.756643 -0.056793 0
0.760353 -0.107613 0
0.774882 -0.151044 0
0.797674 -0.180921 0
0.827349 -0.193300 0
0.862968 -0.186080 0
0.903318 -0.159330 0
0.946586 -0.115672 0
0.990255 -0.060296 0
1.030488 -0.001651 0
1.061953 0.051061 0
1.083361 0.093128 0
1.095078 0.123671 0
1.097947 0.142852 0
1.093004 0.151586 0
1.081259 0.151372 0
1.063500 0.144218 0
1.040179 0.132549 0
1.011530 0.118851 0
0.978126 0.104862 0
0.941704 0.090645 0
0.905593 0.074381 0
0.874088 0.053484 0
0.850947 0.026441 0
0.837893 -0.006095 0
0.834288 -0.041447 0
0.838284 -0.075789 0
0.847980 -0.105433 0
0.861964 -0.127572 0
0.879328 -0.140256 0
0.899468 -0.142273 0
0.921855 -0.133187 0
0.945877 -0.113488 0
0.970778 -0.084710 0
0.995622 -0.049440 0
1.019161 -0.011414 0
1.039258 0.024750 0
1.054520 0.055476 0
1.064300 0.079004 0
1.068294 0.094595 0
1.066488 0.102471 0
1.059129 0.103655 0
1.046731 0.099695 0
1.030152 0.092255 0
1.010735 0.082629 0
0.990453 0.071412 0
0.971885 0.057100 0
0.959329 0.048175 0
1.000000 0.000020 0
0.998498 -0.023974 0
0.993919 -0.051166 0
0.986127 -0.085342 0
0.975251 -0.132026 0
0.962755 -0.200356 0
0.954875 -0.304208 0
0.973432 -0.495440 0
1.130090 -0.493823 0
1.112373 -0.276510 0
1.003614 -0.159236 0
0.940504 -0.113093 0
0.894688 -0.088532 0
0.864252 -0.076410 0
0.854911 -0.068067 0
0.871806 -0.048025 0
0.909309 -0.003369 0
0.944150 0.054179 0
0.963463 0.106421 0
0.970157 0.149008 0
0.963915 0.180332 0
0.944402 0.198839 0
0.911926 0.203231 0
0.867003 0.193706 0
0.810554 0.173644 0
0.745354 0.149414 0
0.677604 0.125419 0
0.616520 0.098714 0
0.572237 0.061546 0
0.551575 0.006761 0
0.553562 -0.064091 0
0.574576 -0.134143 0
0.611564 -0.183571 0
0.662516 -0.201168 0
0.725921 -0.182942 0
0.799286 -0.131652 0
0.877091 -0.057494 0
0.946644 0.018768 0
0.997102 0.080318 0
1.030036 0.126049 0
1.048458 0.159205 0
1.054332 0.181812 0
1.049311 0.195177 0
1.034723 0.200254 0
1.011297 0.198126 0
0.978796 0.190608 0
0.936165 0.180424 0
0.883119 0.169836 0
0.823080 0.157866 0
0.764705 0.139132 0
0.718921 0.107033 0
0.693021 0.059043 0
0.687195 -0.000839 0
0.694985 -0.064270 0
0.709316 -0.123106 0
0.726690 -0.171725 0
0.746484 -0.206229 0
0.769566 -0.223481 0
0.797089 -0.221142 0
0.829533 -0.198510 0
0.866239 -0.157387 0
0.905506 -0.102253 0
0.944901 -0.039817 0
0.980212 0.020786 0
1.007604 0.072217 0
1.026271 0.111997 0
1.036180 0.139848 0
1.037650 0.156542 0
1.031066 0.163676 0
1.016714 0.163503 0
0.994872 0.158558 0
0.966270 0.150882 0
0.932818 0.140966 0
0.897988 0.127257 0
0.866231 0.107007 0
0.841493 0.078230 0
0.825856 0.041352 0
0.819235 -0.000671 0
0.819941 -0.043584 0
0.825712 -0.083320 0
0.834822 -0.116803 0
0.846288 -0.141903 0
0.859737 -0.157118 0
0.875139 -0.161406 0
0.892529 -0.154272 0
0.911763 -0.136022 0
0.932408 -0.107981 0
0.953746 -0.072529 0
0.974816 -0.032947 0
0.994187 0.006548 0
1.010011 0.041942 0
1.021269 0.070796 0
1.027335 0.092046 0
1.027895 0.105626 0
1.022947 0.112264 0
1.012856 0.113136 0
0.998483 0.109394 0
0.981307 0.101693 0
0.963431 0.090012 0
0.947365 0.071958 0
0.936392 0.060127 0
1.000000 0.000022 0
0.997126 -0.019351 0
0.988091 -0.041440 0
0.971544 -0.069593 0
0.944816 -0.109226 0
0.903113 -0.171094 0
0.837670 -0.278746 0
0.733155 -0.548520 0
0.547543 -0.528462 0
-0.000129 -0.164804 0
0.391745 -0.034188 0
0.316001 -0.042638 0
0.298698 -0.039345 0
0.309539 -0.049383 0
0.324881 -0.070940 0
0.355834 -0.083870 0
0.410609 -0.058582 0
0.481391 0.005076 0
0.540132 0.074185 0
0.579583 0.132521 0
0.598348 0.181478 0
0.593913 0.219323 0
0.565793 0.244702 0
0.515384 0.257452 0
0.447998 0.257047 0
0.375388 0.240900 0
0.314727 0.205121 0
0.281613 0.147454 0
0.282331 0.069739 0
0.311704 -0.019471 0
0.353751 -0.106867 0
0.396242 -0.181499 0
0.437989 -0.235038 0
0.483057 -0.259738 0
0.536168 -0.250658 0
0.599919 -0.207946 0
0.673382 -0.138092 0
0.751416 -0.053709 0
0.820786 0.025976 0
0.872625 0.089137 0
0.908141 0.137347 0
0.928662 0.173466 0
0.935147 0.199122 0
0.928186 0.215843 0
0.907890 0.225596 0
0.874248 0.230712 0
0.828605 0.232524 0
0.775887 0.229098 0
0.725279 0.214560 0
0.687097 0.182362 0
0.667540 0.130459 0
0.666055 0.063455 0
0.677167 -0.009451 0
0.693467 -0.078914 0
0.709847 -0.139317 0
0.724266 -0.188212 0
0.736993 -0.223798 0
0.749894 -0.243905 0
0.765568 -0.246048 0
0.786207 -0.228481 0
0.812576 -0.191646 0
0.843729 -0.138959 0
0.877509 -0.076358 0
0.911040 -0.011644 0
0.939866 0.047069 0
0.961668 0.095093 0
0.975526 0.131471 0
0.981038 0.156699 0
0.978035 0.172306 0
0.966575 0.180410 0
0.947261 0.182992 0
0.921790 0.180904 0
0.893306 0.173144 0
0.865984 0.157232 0
0.843762 0.130876 0
0.828980 0.093859 0
0.821897 0.048701 0
0.821270 -0.000178 0
0.825203 -0.047921 0
0.831776 -0.090668 0
0.839621 -0.126006 0
0.848042 -0.152484 0
0.856964 -0.169104 0
0.866779 -0.175064 0
0.878063 -0.169811 0
0.891239 -0.153367 0
0.906322 -0.126693 0
0.922858 -0.091850 0
0.940024 -0.051859 0
0.956718 -0.010450 0
0.971286 0.028388 0
0.982392 0.061674 0
0.989174 0.087962 0
0.991119 0.106851 0
0.988085 0.118686 0
0.980392 0.124150 0
0.968926 0.123795 0
0.955174 0.117671 0
0.941075 0.105345 0
0.928683 0.084130 0
0.920080 0.069967 0
1.000000 0.000023 0
0.996200 -0.012059 0
0.984152 -0.025580 0
0.961661 -0.042065 0
0.924108 -0.063594 0
0.862252 -0.093205 0
0.756421 -0.134246 0
0.563441 -0.205311 0
0.074269 0.000508 0
-0.527758 0.126798 0
0.000000 0.000007 0
-0.034481 -0.031139 0
-0.054741 -0.082073 0
-0.040637 -0.102597 0
-0.040346 -0.114365 0
-0.032477 -0.133756 0
0.000797 -0.128929 0
0.067412 -0.075347 0
0.150893 0.008227 0
0.216810 0.090793 0
0.253588 0.166004 0
0.263571 0.231397 0
0.251195 0.281765 0
0.222680 0.311507 0
0.190193 0.313646 0
0.168984 0.282689 0
0.170790 0.219196 0
0.198529 0.131110 0
0.245485 0.031454 0
0.295196 -0.064658 0
0.337312 -0.148628 0
0.369514 -0.218381 0
0.393754 -0.270387 0
0.415744 -0.299347 0
0.443069 -0.299806 0
0.482189 -0.268868 0
0.535538 -0.208994 0
0.600496 -0.128639 0
0.669758 -0.040892 0
0.729946 0.038692 0
0.774429 0.103165 0
0.803273 0.154804 0
0.816625 0.195651 0
0.814630 0.227508 0
0.797872 0.252063 0
0.768492 0.269893 0
0.731650 0.278786 0
0.695824 0.273164 0
0.670335 0.246659 0
0.661029 0.196874 0
0.667807 0.128077 0
0.685977 0.049419 0
0.708895 -0.028249 0
0.730302 -0.096949 0
0.747113 -0.153905 0
0.758098 -0.198873 0
0.763625 -0.231858 0
0.765693 -0.252056 0
0.767693 -0.257455 0
0.773451 -0.245519 0
0.785741 -0.214910 0
0.805142 -0.167187 0
0.830050 -0.107130 0
0.857616 -0.041572 0
0.884060 0.021587 0