# vtk DataFile Version 2.0
generated by CFD-lab course output (written by Tobias Neckel) 
ASCII

DATASET STRUCTURED_GRID
DIMENSIONS  101 21 1 
POINTS 2121 float

0.000000 0.000000 0
0.100000 0.000000 0
0.200000 0.000000 0
0.300000 0.000000 0
0.400000 0.000000 0
0.500000 0.000000 0
0.600000 0.000000 0
0.700000 0.000000 0
0.800000 0.000000 0
0.900000 0.000000 0
1.000000 0.000000 0
1.100000 0.000000 0
1.200000 0.000000 0
1.300000 0.000000 0
1.400000 0.000000 0
1.500000 0.000000 0
1.600000 0.000000 0
1.700000 0.000000 0
1.800000 0.000000 0
1.900000 0.000000 0
2.000000 0.000000 0
2.100000 0.000000 0
2.200000 0.000000 0
2.300000 0.000000 0
2.400000 0.000000 0
2.500000 0.000000 0
2.600000 0.000000 0
2.700000 0.000000 0
2.800000 0.000000 0
2.900000 0.000000 0
3.000000 0.000000 0
3.100000 0.000000 0
3.200000 0.000000 0
3.300000 0.000000 0
3.400000 0.000000 0
3.500000 0.000000 0
3.600000 0.000000 0
3.700000 0.000000 0
3.800000 0.000000 0
3.900000 0.000000 0
4.000000 0.000000 0
4.100000 0.000000 0
4.200000 0.000000 0
4.300000 0.000000 0
4.400000 0.000000 0
4.500000 0.000000 0
4.600000 0.000000 0
4.700000 0.000000 0
4.800000 0.000000 0
4.900000 0.000000 0
5.000000 0.000000 0
5.100000 0.000000 0
5.200000 0.000000 0
5.300000 0.000000 0
5.400000 0.000000 0
5.500000 0.000000 0
5.600000 0.000000 0
5.700000 0.000000 0
5.800000 0.000000 0
5.900000 0.000000 0
6.000000 0.000000 0
6.100000 0.000000 0
6.200000 0.000000 0
6.300000 0.000000 0
6.400000 0.000000 0
6.500000 0.000000 0
6.600000 0.000000 0
6.700000 0.000000 0
6.800000 0.000000 0
6.900000 0.000000 0
7.000000 0.000000 0
7.100000 0.000000 0
7.200000 0.000000 0
7.300000 0.000000 0
7.400000 0.000000 0
7.500000 0.000000 0
7.600000 0.000000 0
7.700000 0.000000 0
7.800000 0.000000 0
7.900000 0.000000 0
8.000000 0.000000 0
8.100000 0.000000 0
8.200000 0.000000 0
8.300000 0.000000 0
8.400000 0.000000 0
8.500000 0.000000 0
8.600000 0.000000 0
8.700000 0.000000 0
8.800000 0.000000 0
8.900000 0.000000 0
9.000000 0.000000 0
9.100000 0.000000 0
9.200000 0.000000 0
9.300000 0.000000 0
9.400000 0.000000 0
9.500000 0.000000 0
9.600000 0.000000 0
9.700000 0.000000 0
9.800000 0.000000 0
9.900000 0.000000 0
10.000000 0.000000 0
0.000000 0.100000 0
0.100000 0.100000 0
0.200000 0.100000 0
0.300000 0.100000 0
0.400000 0.100000 0
0.500000 0.100000 0
0.600000 0.100000 0
0.700000 0.100000 0
0.800000 0.100000 0
0.900000 0.100000 0
1.000000 0.100000 0
1.100000 0.100000 0
1.200000 0.100000 0
1.300000 0.100000 0
1.400000 0.100000 0
1.500000 0.100000 0
1.600000 0.100000 0
1.700000 0.100000 0
1.800000 0.100000 0
1.900000 0.100000 0
2.000000 0.100000 0
2.100000 0.100000 0
2.200000 0.100000 0
2.300000 0.100000 0
2.400000 0.100000 0
2.500000 0.100000 0
2.600000 0.100000 0
2.700000 0.100000 0
2.800000 0.100000 0
2.900000 0.100000 0
3.000000 0.100000 0
3.100000 0.100000 0
3.200000 0.100000 0
3.300000 0.100000 0
3.400000 0.100000 0
3.500000 0.100000 0
3.600000 0.100000 0
3.700000 0.100000 0
3.800000 0.100000 0
3.900000 0.100000 0
4.000000 0.100000 0
4.100000 0.100000 0
4.200000 0.100000 0
4.300000 0.100000 0
4.400000 0.100000 0
4.500000 0.100000 0
4.600000 0.100000 0
4.700000 0.100000 0
4.800000 0.100000 0
4.900000 0.100000 0
5.000000 0.100000 0
5.100000 0.100000 0
5.200000 0.100000 0
5.300000 0.100000 0
5.400000 0.100000 0
5.500000 0.100000 0
5.600000 0.100000 0
5.700000 0.100000 0
5.800000 0.100000 0
5.900000 0.100000 0
6.000000 0.100000 0
6.100000 0.100000 0
6.200000 0.100000 0
6.300000 0.100000 0
6.400000 0.100000 0
6.500000 0.100000 0
6.600000 0.100000 0
6.700000 0.100000 0
6.800000 0.100000 0
6.900000 0.100000 0
7.000000 0.100000 0
7.100000 0.100000 0
7.200000 0.100000 0
7.300000 0.100000 0
7.400000 0.100000 0
7.500000 0.100000 0
7.600000 0.100000 0
7.700000 0.100000 0
7.800000 0.100000 0
7.900000 0.100000 0
8.000000 0.100000 0
8.100000 0.100000 0
8.200000 0.100000 0
8.300000 0.100000 0
8.400000 0.100000 0
8.500000 0.100000 0
8.600000 0.100000 0
8.700000 0.100000 0
8.800000 0.100000 0
8.900000 0.100000 0
9.000000 0.100000 0
9.100000 0.100000 0
9.200000 0.100000 0
9.300000 0.100000 0
9.400000 0.100000 0
9.500000 0.100000 0
9.600000 0.100000 0
9.700000 0.100000 0
9.800000 0.100000 0
9.900000 0.100000 0
10.000000 0.100000 0
0.000000 0.200000 0
0.100000 0.200000 0
0.200000 0.200000 0
0.300000 0.200000 0
0.400000 0.200000 0
0.500000 0.200000 0
0.600000 0.200000 0
0.700000 0.200000 0
0.800000 0.200000 0
0.900000 0.200000 0
1.000000 0.200000 0
1.100000 0.200000 0
1.200000 0.200000 0
1.300000 0.200000 0
1.400000 0.200000 0
1.500000 0.200000 0
1.600000 0.200000 0
1.700000 0.200000 0
1.800000 0.200000 0
1.900000 0.200000 0
2.000000 0.200000 0
2.100000 0.200000 0
2.200000 0.200000 0
2.300000 0.200000 0
2.400000 0.200000 0
2.500000 0.200000 0
2.600000 0.200000 0
2.700000 0.200000 0
2.800000 0.200000 0
2.900000 0.200000 0
3.000000 0.200000 0
3.100000 0.200000 0
3.200000 0.200000 0
3.300000 0.200000 0
3.400000 0.200000 0
3.500000 0.200000 0
3.600000 0.200000 0
3.700000 0.200000 0
3.800000 0.200000 0
3.900000 0.200000 0
4.000000 0.200000 0
4.100000 0.200000 0
4.200000 0.200000 0
4.300000 0.200000 0
4.400000 0.200000 0
4.500000 0.200000 0
4.600000 0.200000 0
4.700000 0.200000 0
4.800000 0.200000 0
4.900000 0.200000 0
5.000000 0.200000 0
5.100000 0.200000 0
5.200000 0.200000 0
5.300000 0.200000 0
5.400000 0.200000 0
5.500000 0.200000 0
5.600000 0.200000 0
5.700000 0.200000 0
5.800000 0.200000 0
5.900000 0.200000 0
6.000000 0.200000 0
6.100000 0.200000 0
6.200000 0.200000 0
6.300000 0.200000 0
6.400000 0.200000 0
6.500000 0.200000 0
6.600000 0.200000 0
6.700000 0.200000 0
6.800000 0.200000 0
6.900000 0.200000 0
7.000000 0.200000 0
7.100000 0.200000 0
7.200000 0.200000 0
7.300000 0.200000 0
7.400000 0.200000 0
7.500000 0.200000 0
7.600000 0.200000 0
7.700000 0.200000 0
7.800000 0.200000 0
7.900000 0.200000 0
8.000000 0.200000 0
8.100000 0.200000 0
8.200000 0.200000 0
8.300000 0.200000 0
8.400000 0.200000 0
8.500000 0.200000 0
8.600000 0.200000 0
8.700000 0.200000 0
8.800000 0.200000 0
8.900000 0.200000 0
9.000000 0.200000 0
9.100000 0.200000 0
9.200000 0.200000 0
9.300000 0.200000 0
9.400000 0.200000 0
9.500000 0.200000 0
9.600000 0.200000 0
9.700000 0.200000 0
9.800000 0.200000 0
9.900000 0.200000 0
10.000000 0.200000 0
0.000000 0.300000 0
0.100000 0.300000 0
0.200000 0.300000 0
0.300000 0.300000 0
0.400000 0.300000 0
0.500000 0.300000 0
0.600000 0.300000 0
0.700000 0.300000 0
0.800000 0.300000 0
0.900000 0.300000 0
1.000000 0.300000 0
1.100000 0.300000 0
1.200000 0.300000 0
1.300000 0.300000 0
1.400000 0.300000 0
1.500000 0.300000 0
1.600000 0.300000 0
1.700000 0.300000 0
1.800000 0.300000 0
1.900000 0.300000 0
2.000000 0.300000 0
2.100000 0.300000 0
2.200000 0.300000 0
2.300000 0.300000 0
2.400000 0.300000 0
2.500000 0.300000 0
2.600000 0.300000 0
2.700000 0.300000 0
2.800000 0.300000 0
2.900000 0.300000 0
3.000000 0.300000 0
3.100000 0.300000 0
3.200000 0.300000 0
3.300000 0.300000 0
3.400000 0.300000 0
3.500000 0.300000 0
3.600000 0.300000 0
3.700000 0.300000 0
3.800000 0.300000 0
3.900000 0.300000 0
4.000000 0.300000 0
4.100000 0.300000 0
4.200000 0.300000 0
4.300000 0.300000 0
4.400000 0.300000 0
4.500000 0.300000 0
4.600000 0.300000 0
4.700000 0.300000 0
4.800000 0.300000 0
4.900000 0.300000 0
5.000000 0.300000 0
5.100000 0.300000 0
5.200000 0.300000 0
5.300000 0.300000 0
5.400000 0.300000 0
5.500000 0.300000 0
5.600000 0.300000 0
5.700000 0.300000 0
5.800000 0.300000 0
5.900000 0.300000 0
6.000000 0.300000 0
6.100000 0.300000 0
6.200000 0.300000 0
6.300000 0.300000 0
6.400000 0.300000 0
6.500000 0.300000 0
6.600000 0.300000 0
6.700000 0.300000 0
6.800000 0.300000 0
6.900000 0.300000 0
7.000000 0.300000 0
7.100000 0.300000 0
7.200000 0.300000 0
7.300000 0.300000 0
7.400000 0.300000 0
7.500000 0.300000 0
7.600000 0.300000 0
7.700000 0.300000 0
7.800000 0.300000 0
7.900000 0.300000 0
8.000000 0.300000 0
8.100000 0.300000 0
8.200000 0.300000 0
8.300000 0.300000 0
8.400000 0.300000 0
8.500000 0.300000 0
8.600000 0.300000 0
8.700000 0.300000 0
8.800000 0.300000 0
8.900000 0.300000 0
9.000000 0.300000 0
9.100000 0.300000 0
9.200000 0.300000 0
9.300000 0.300000 0
9.400000 0.300000 0
9.500000 0.300000 0
9.600000 0.300000 0
9.700000 0.300000 0
9.800000 0.300000 0
9.900000 0.300000 0
10.000000 0.300000 0
0.000000 0.400000 0
0.100000 0.400000 0
0.200000 0.400000 0
0.300000 0.400000 0
0.400000 0.400000 0
0.500000 0.400000 0
0.600000 0.400000 0
0.700000 0.400000 0
0.800000 0.400000 0
0.900000 0.400000 0
1.000000 0.400000 0
1.100000 0.400000 0
1.200000 0.400000 0
1.300000 0.400000 0
1.400000 0.400000 0
1.500000 0.400000 0
1.600000 0.400000 0
1.700000 0.400000 0
1.800000 0.400000 0
1.900000 0.400000 0
2.000000 0.400000 0
2.100000 0.400000 0
2.200000 0.400000 0
2.300000 0.400000 0
2.400000 0.400000 0
2.500000 0.400000 0
2.600000 0.400000 0
2.700000 0.400000 0
2.800000 0.400000 0
2.900000 0.400000 0
3.000000 0.400000 0
3.100000 0.400000 0
3.200000 0.400000 0
3.300000 0.400000 0
3.400000 0.400000 0
3.500000 0.400000 0
3.600000 0.400000 0
3.700000 0.400000 0
3.800000 0.400000 0
3.900000 0.400000 0
4.000000 0.400000 0
4.100000 0.400000 0
4.200000 0.400000 0
4.300000 0.400000 0
4.400000 0.400000 0
4.500000 0.400000 0
4.600000 0.400000 0
4.700000 0.400000 0
4.800000 0.400000 0
4.900000 0.400000 0
5.000000 0.400000 0
5.100000 0.400000 0
5.200000 0.400000 0
5.300000 0.400000 0
5.400000 0.400000 0
5.500000 0.400000 0
5.600000 0.400000 0
5.700000 0.400000 0
5.800000 0.400000 0
5.900000 0.400000 0
6.000000 0.400000 0
6.100000 0.400000 0
6.200000 0.400000 0
6.300000 0.400000 0
6.400000 0.400000 0
6.500000 0.400000 0
6.600000 0.400000 0
6.700000 0.400000 0
6.800000 0.400000 0
6.900000 0.400000 0
7.000000 0.400000 0
7.100000 0.400000 0
7.200000 0.400000 0
7.300000 0.400000 0
7.400000 0.400000 0
7.500000 0.400000 0
7.600000 0.400000 0
7.700000 0.400000 0
7.800000 0.400000 0
7.900000 0.400000 0
8.000000 0.400000 0
8.100000 0.400000 0
8.200000 0.400000 0
8.300000 0.400000 0
8.400000 0.400000 0
8.500000 0.400000 0
8.600000 0.400000 0
[...]
POINT_DATA 2121 

VECTORS velocity float
0.500000 0.000000 0
-0.000000 0.000000 0
0.000001 0.000000 0
0.000007 0.000000 0
0.000017 0.000000 0
0.000035 0.000000 0
0.000062 0.000000 0
0.000099 0.000000 0
0.000145 0.000000 0
0.000200 0.000000 0
0.000259 0.000000 0
0.000313 0.000000 0
0.000352 0.000000 0
0.000361 0.000000 0
0.000324 0.000000 0
0.000225 0.000000 0
0.000054 0.000000 0
-0.000194 0.000000 0
-0.000514 0.000000 0
-0.000892 0.000000 0
-0.001297 0.000000 0
-0.001682 0.000000 0
-0.001980 0.000000 0
-0.002101 0.000000 0
-0.001978 0.000000 0
-0.001595 0.000000 0
-0.000991 0.000000 0
-0.000240 0.000000 0
0.000563 0.000000 0
0.001337 0.000000 0
0.002019 0.000000 0
0.002569 0.000000 0
0.002963 0.000000 0
0.003188 0.000000 0
0.003236 0.000000 0
0.003103 0.000000 0
0.002787 0.000000 0
0.002286 0.000000 0
0.001597 0.000000 0
0.000711 0.000000 0
-0.000385 0.000000 0
-0.001641 0.000000 0
-0.002937 0.000000 0
-0.004155 0.000000 0
-0.005154 0.000000 0
-0.005770 0.000000 0
-0.005852 0.000000 0
-0.005311 0.000000 0
-0.004169 0.000000 0
-0.002596 0.000000 0
-0.000878 0.000000 0
0.000762 0.000000 0
0.002240 0.000000 0
0.003474 0.000000 0
0.004413 0.000000 0
0.005035 0.000000 0
0.005345 0.000000 0
0.005359 0.000000 0
0.005101 0.000000 0
0.004591 0.000000 0
0.003844 0.000000 0
0.002873 0.000000 0
0.001701 0.000000 0
0.000390 0.000000 0
-0.000906 0.000000 0
-0.002052 0.000000 0
-0.003043 0.000000 0
-0.003895 0.000000 0
-0.004617 0.000000 0
-0.005199 0.000000 0
-0.005598 0.000000 0
-0.005737 0.000000 0
-0.005512 0.000000 0
-0.004827 0.000000 0
-0.003655 0.000000 0
-0.002104 0.000000 0
-0.000403 0.000000 0
0.001293 0.000000 0
0.002896 0.000000 0
0.004297 0.000000 0
0.005391 0.000000 0
0.006080 0.000000 0
0.006284 0.000000 0
0.005960 0.000000 0
0.005118 0.000000 0
0.003846 0.000000 0
0.002306 0.000000 0
0.000709 0.000000 0
-0.000710 0.000000 0
-0.001757 0.000000 0
-0.002499 0.000000 0
-0.003038 0.000000 0
-0.003460 0.000000 0
-0.003827 0.000000 0
-0.004176 0.000000 0
-0.004515 0.000000 0
-0.004826 0.000000 0
-0.005073 0.000000 0
-0.005216 0.000000 0
-0.005238 0.000000 0
-0.005329 0.000000 0
1.000000 -0.000000 0
1.002678 -0.004899 0
1.011020 -0.010577 0
1.025392 -0.016710 0
1.046187 -0.023073 0
1.073620 -0.029263 0
1.107403 -0.034587 0
1.146335 -0.038091 0
1.187998 -0.038813 0
1.228651 -0.036387 0
1.264855 -0.031367 0
1.294442 -0.024770 0
1.316499 -0.017585 0
1.331014 -0.010584 0
1.338599 -0.004334 0
1.340309 0.000760 0
1.337504 0.004446 0
1.331731 0.006599 0
1.324619 0.007212 0
1.317753 0.006410 0
1.312517 0.004472 0
1.309948 0.001839 0
1.310546 -0.000854 0
1.314034 -0.002820 0
1.319224 -0.003344 0
1.324188 -0.002063 0
1.326785 0.000954 0
1.325270 0.005281 0
1.318613 0.010297 0
1.306508 0.015389 0
1.289238 0.020061 0
1.267505 0.023964 0
1.242269 0.026875 0
1.214640 0.028666 0
1.185807 0.029262 0
1.157001 0.028624 0
1.129476 0.026730 0
1.104493 0.023566 0
1.083302 0.019100 0
1.067130 0.013262 0
1.057137 0.006000 0
1.054358 -0.002392 0
1.059619 -0.011215 0
1.073322 -0.019649 0
1.095124 -0.026777 0
1.123682 -0.031594 0
1.156607 -0.033186 0
1.190602 -0.030988 0
1.221812 -0.025062 0
1.246428 -0.016284 0
1.261525 -0.006181 0
1.265796 0.003876 0
1.259622 0.013124 0
1.244223 0.021074 0
1.221261 0.027369 0
1.192638 0.031823 0
1.160327 0.034393 0
1.126260 0.035129 0
1.092267 0.034117 0
1.060045 0.031440 0
1.031149 0.027156 0
1.006941 0.021330 0
0.988502 0.014116 0
0.976506 0.005931 0
0.971173 -0.002323 0
0.972371 -0.009773 0
0.979646 -0.016138 0
0.992428 -0.021455 0
1.010112 -0.025788 0
1.032087 -0.029120 0
1.057684 -0.031277 0
1.086034 -0.031893 0
1.115844 -0.030453 0
1.145238 -0.026470 0
1.171756 -0.019801 0
1.192594 -0.010965 0
1.205094 -0.001062 0
1.207512 0.008932 0
1.199730 0.018415 0
1.182582 0.026825 0
1.157498 0.033564 0
1.126447 0.038065 0
1.091835 0.039841 0
1.056350 0.038570 0
1.022718 0.034237 0
0.993359 0.027255 0
0.970005 0.018506 0
0.953444 0.009232 0
0.943527 0.000869 0
0.939492 -0.005510 0
0.940254 -0.009831 0
0.944594 -0.012632 0
0.951539 -0.014423 0
0.960430 -0.015581 0
0.970879 -0.016323 0
0.982657 -0.016698 0
0.995536 -0.016595 0
1.009127 -0.015792 0
1.022772 -0.014024 0
1.035547 -0.011679 0
1.046034 -0.010585 0
1.000000 0.000000 0
1.003002 -0.011058 0
1.011814 -0.022738 0
1.026763 -0.035191 0
1.048473 -0.048252 0
1.077598 -0.061240 0
1.114411 -0.072739 0
1.158109 -0.080619 0
1.206209 -0.082340 0
1.252764 -0.076881 0
1.292993 -0.065815 0
1.324753 -0.051669 0
1.347638 -0.036596 0
1.362077 -0.022124 0
1.368969 -0.009319 0
1.369593 0.001071 0
1.365457 0.008554 0
1.358265 0.012860 0
1.349825 0.013954 0
1.341915 0.012078 0
1.336132 0.007781 0
1.333768 0.001947 0
1.335639 -0.004111 0
1.341649 -0.008702 0
1.350410 -0.010178 0
1.359339 -0.007585 0
1.365474 -0.001105 0
1.366618 0.008147 0
1.361731 0.018737 0
1.350683 0.029351 0
1.333991 0.038980 0
1.312558 0.046945 0
1.287481 0.052840 0
1.259933 0.056438 0
1.231117 0.057615 0
1.202243 0.056307 0
1.174522 0.052485 0
1.149146 0.046150 0
1.127260 0.037338 0
1.109918 0.026141 0
1.098030 0.012748 0
1.092401 -0.002506 0
1.093945 -0.018988 0
1.103418 -0.035529 0
1.120970 -0.050384 0
1.145928 -0.061507 0
1.176824 -0.066944 0
1.211382 -0.065230 0
1.246387 -0.055850 0
1.277753 -0.039737 0
1.301133 -0.019392 0
1.313210 0.001880 0
1.313365 0.021550 0
1.303078 0.038337 0
1.284294 0.051561 0
1.259145 0.060910 0
1.229756 0.066353 0
1.198130 0.068036 0
1.166082 0.066191 0
1.135196 0.061094 0
1.106785 0.053080 0
1.081825 0.042623 0
1.060906 0.030412 0
1.044236 0.017305 0
1.031816 0.004111 0
1.023821 -0.008496 0
1.020394 -0.020080 0
1.021511 -0.030491 0
1.027134 -0.039683 0
1.037326 -0.047596 0
1.052261 -0.053971 0
1.072013 -0.058183 0
1.096217 -0.059228 0
1.123801 -0.055936 0
1.152886 -0.047380 0
1.180800 -0.033362 0
1.204228 -0.014942 0
1.219827 0.005340 0
1.225615 0.024907 0
1.221886 0.042209 0
1.209799 0.056111 0
1.191019 0.065639 0
1.167512 0.070073 0
1.141340 0.069093 0
1.114425 0.062967 0
1.088347 0.052690 0
1.064219 0.039891 0
1.042707 0.026454 0
1.024179 0.013927 0
1.008974 0.003249 0
0.997289 -0.005126 0
0.988901 -0.011310 0
0.983396 -0.015860 0
0.980489 -0.019364 0
0.980137 -0.022251 0
0.982447 -0.024680 0
0.987516 -0.026494 0
0.995210 -0.027260 0
1.005010 -0.026444 0
1.016032 -0.023286 0
1.025867 -0.021379 0
1.000000 0.000000 0
1.002607 -0.016737 0
1.010613 -0.034348 0
1.024635 -0.053380 0
1.045808 -0.073918 0
1.075650 -0.095211 0
1.115677 -0.115107 0
1.166245 -0.129899 0
1.225917 -0.133478 0
1.281812 -0.123181 0
1.326662 -0.103366 0
1.359488 -0.079425 0
1.381425 -0.054919 0
1.393726 -0.031926 0
1.397641 -0.011860 0
1.394713 0.004262 0
1.386587 0.015763 0
1.375188 0.022222 0
1.362636 0.023552 0
1.351056 0.020092 0
1.342378 0.012609 0
1.338245 0.002322 0
1.340053 -0.008745 0
1.348303 -0.017600 0
1.361493 -0.021045 0
1.375969 -0.017137 0
1.387102 -0.006334 0
1.391446 0.009014 0
1.387955 0.026222 0
1.376949 0.043120 0
1.359453 0.058176 0
1.336772 0.070464 0
1.310237 0.079491 0
1.281120 0.085020 0
1.250626 0.086941 0
1.219919 0.085208 0
1.190134 0.079818 0
1.162379 0.070818 0
1.137710 0.058318 0
1.117086 0.042482 0
1.101316 0.023507 0
1.091029 0.001683 0
1.086743 -0.022242 0
1.088993 -0.046684 0
1.098091 -0.069297 0
1.114138 -0.087458 0
1.137213 -0.098650 0
1.167012 -0.100561 0
1.202019 -0.091443 0
1.238907 -0.071040 0
1.272610 -0.041648 0
1.297382 -0.008365 0
1.309077 0.023247 0
1.308116 0.050135 0
1.296762 0.071292 0
1.277448 0.086351 0
1.252532 0.095399 0
1.224159 0.098793 0
1.194182 0.097041 0
1.164125 0.090727 0
1.135169 0.080517 0
1.108170 0.067198 0
1.083706 0.051695 0
1.062137 0.035012 0
1.043598 0.018082 0
1.027949 0.001639 0
1.014984 -0.013838 0
1.004709 -0.028205 0
0.997748 -0.041613 0
0.995246 -0.054257 0
0.998589 -0.065974 0
1.008836 -0.075859 0
1.026164 -0.082251 0
1.049734 -0.083149 0
1.077873 -0.076809 0
1.108314 -0.062317 0
1.138343 -0.040099 0
1.164787 -0.012466 0
1.184153 0.016347 0
1.194610 0.042631 0
1.196527 0.064421 0
1.190889 0.080343 0
1.179005 0.089510 0
1.162280 0.091647 0
1.142049 0.087220 0
1.119516 0.077452 0
1.095788 0.064136 0
1.071920 0.049262 0
1.048857 0.034592 0
1.027238 0.021370 0
1.007395 0.010233 0
0.989577 0.001251 0
0.974001 -0.006021 0
0.961078 -0.012331 0
0.951452 -0.018292 0
0.945809 -0.024087 0
0.944504 -0.029367 0
0.947360 -0.033296 0
0.953616 -0.034856 0
0.962023 -0.032546 0
0.970593 -0.030933 0
1.000000 0.000001 0
1.002078 -0.021696 0
1.008625 -0.044776 0
1.020551 -0.070397 0
1.039618 -0.099277 0
1.068610 -0.131118 0
1.111312 -0.163344 0
1.171039 -0.190869 0
1.252118 -0.197917 0
1.320162 -0.177636 0
1.366674 -0.143502 0
1.396509 -0.106442 0
1.414400 -0.070844 0
1.422506 -0.038351 0
1.421917 -0.010315 0
1.413849 0.012115 0
1.399851 0.028069 0
1.382100 0.036801 0
1.363172 0.038076 0
1.345699 0.032326 0
1.332012 0.020582 0
1.323943 0.004263 0
1.323245 -0.014179 0
1.331841 -0.030152 0
1.349068 -0.037854 0
1.370782 -0.033204 0
1.390192 -0.016592 0
1.400677 0.007285 0
1.400124 0.033224 0
1.389842 0.057844 0
1.371800 0.079147 0
1.347940 0.096151 0
1.319907 0.108482 0
1.289068 0.116039 0
1.256617 0.118806 0
1.223667 0.116789 0
1.191307 0.110014 0
1.160618 0.098564 0
1.132643 0.082622 0
1.108277 0.062525 0
1.087979 0.038795 0
1.071398 0.012057 0
1.057462 -0.016962 0
1.045775 -0.046887 0
1.037799 -0.075539 0
1.035960 -0.100639 0
1.043306 -0.119828 0
1.062034 -0.130045 0
1.092139 -0.127755 0
1.131117 -0.110338 0
1.174210 -0.077878 0
1.214829 -0.034597 0
1.245534 0.010806 0
1.261630 0.050641 0
1.264614 0.082219 0
1.256983 0.105130 0
1.241251 0.119633 0
1.219742 0.126376 0
1.194494 0.126215 0
1.167204 0.120097 0
1.139227 0.109025 0
1.111588 0.094077 0
1.084988 0.076435 0
1.059741 0.057403 0
1.035694 0.038288 0
1.012316 0.020108 0
0.989218 0.003149 0
0.966911 -0.013265 0
0.947285 -0.030230 0
0.933436 -0.048446 0
0.928080 -0.067571 0
0.932363 -0.085768 0
0.945800 -0.100136 0
0.966901 -0.107655 0
0.993752 -0.105970 0
1.024314 -0.093842 0
1.056498 -0.071425 0
1.088055 -0.040480 0
1.116214 -0.004926 0
1.137597 0.029825 0
1.150969 0.059822 0
1.156529 0.083151 0
1.154921 0.098673 0
1.147004 0.106039 0
1.133727 0.105721 0
1.116082 0.098941 0
1.095099 0.087478 0
1.071811 0.073375 0
1.047138 0.058599 0
1.021812 0.044702 0
0.996460 0.032526 0
0.971854 0.022074 0
0.949127 0.012629 0
0.929653 0.003176 0
0.914709 -0.006992 0
0.905159 -0.017741 0
0.901200 -0.028055 0
0.902246 -0.036382 0
0.907111 -0.041117 0
0.914254 -0.040274 0
0.921725 -0.039287 0
1.000000 0.000002 0
1.001246 -0.025387 0
1.005313 -0.052832 0
1.013223 -0.084382 0
1.027172 -0.121987 0
1.051253 -0.166915 0
1.092555 -0.217546 0
1.160815 -0.270715 0
1.278980 -0.282611 0
1.352770 -0.237747 0
1.386638 -0.179723 0
1.402659 -0.127162 0
1.410864 -0.080926 0
1.412767 -0.039452 0
1.407035 -0.003213 0
1.392994 0.026318 0
1.371808 0.047502 0
1.345879 0.058891 0
1.318312 0.059944 0
1.292365 0.051242 0
1.270793 0.034354 0
1.255301 0.011079 0
1.246751 -0.016652 0
1.248462 -0.043433 0
1.262969 -0.059996 0
1.288772 -0.058272 0
1.319559 -0.036239 0
1.344607 -0.000928 0
1.354743 0.037047 0
1.351495 0.071434 0
1.338547 0.100069 0
1.318694 0.122346 0
1.293819 0.138352 0
1.265249 0.148300 0
1.234077 0.152333 0
1.201333 0.150508 0
1.168057 0.142857 0
1.135297 0.129472 0
1.104049 0.110649 0
1.075021 0.087135 0
1.048049 0.060375 0
1.021378 0.032190 0
0.992203 0.003371 0
0.959490 -0.027030 0
0.927534 -0.059491 0
0.905330 -0.092975 0
0.899217 -0.124734 0
0.910534 -0.149404 0
0.937471 -0.160536 0
0.976819 -0.153121 0
1.024548 -0.125370 0
1.075684 -0.079699 0
1.123847 -0.023565 0
1.161018 0.031045 0
1.183535 0.075929 0
1.193122 0.109705 0
1.191947 0.132629 0
1.182202 0.145540 0
1.165941 0.149569 0
1.144984 0.145984 0
1.120853 0.136123 0
1.094682 0.121427 0
1.067066 0.103532 0
1.037930 0.084296 0
1.006723 0.065497 0
0.973247 0.048105 0
0.938798 0.031557 0
0.906552 0.013718 0
0.880538 -0.008148 0
0.864086 -0.035062 0
0.858732 -0.064911 0
0.863761 -0.093589 0
0.877350 -0.116799 0
0.897581 -0.131110 0
0.922794 -0.134231 0
0.951537 -0.125073 0
0.982418 -0.103850 0
1.013982 -0.072191 0
1.044553 -0.033205 0
1.071582 0.007865 0
1.092226 0.045478 0
1.105718 0.076382 0
1.112005 0.099025 0
1.111408 0.112830 0
1.104464 0.118133 0
1.091843 0.116070 0
1.074280 0.108397 0
1.052521 0.097213 0
1.027314 0.084581 0
0.999551 0.072038 0
0.970501 0.060181 0
0.941965 0.048574 0
0.916114 0.036170 0
0.894967 0.022076 0
0.879812 0.006192 0
0.870914 -0.010587 0
0.867724 -0.026464 0
0.869150 -0.039218 0
0.873821 -0.046873 0
0.880268 -0.047169 0
0.886717 -0.046596 0
1.000000 0.000002 0
1.000053 -0.027033 0
1.000429 -0.056764 0
1.001853 -0.092266 0
1.006188 -0.137316 0
1.017761 -0.196511 0
1.046356 -0.272917 0
1.111898 -0.377303 0
1.279722 -0.389882 0
1.328608 -0.285304 0
1.317099 -0.193401 0
1.302237 -0.130678 0
1.294579 -0.080963 0
1.291424 -0.034532 0
1.282916 0.009447 0
1.264760 0.047332 0
1.237357 0.075175 0
1.203037 0.090288 0
1.165251 0.091580 0
1.127844 0.079835 0
1.093793 0.057636 0
1.064347 0.028295 0
1.039956 -0.007350 0
1.022546 -0.046380 0
1.022210 -0.078174 0
1.045012 -0.089805 0
1.087489 -0.072437 0
1.138313 -0.027909 0
1.180780 0.026326 0
1.203815 0.074030 0
1.212177 0.111937 0
1.210275 0.140869 0
1.200338 0.161917 0
1.183710 0.175770 0
1.161494 0.182712 0
1.134781 0.182800 0
1.104644 0.176041 0
1.071864 0.162562 0
1.036334 0.142887 0
0.996476 0.118515 0
0.949996 0.092428 0
0.896868 0.067893 0
0.842085 0.044917 0
0.794083 0.017773 0
0.760376 -0.021390 0
0.745083 -0.072333 0
0.747464 -0.125041 0
0.764441 -0.168308 0
0.793256 -0.194050 0
0.831938 -0.197426 0
0.878605 -0.176753 0
0.930750 -0.133906 0
0.984822 -0.074537 0
1.035333 -0.009057 0
1.074536 0.050104 0
1.100514 0.096708 0
1.114463 0.130543 0
1.117925 0.152373 0
1.112550 0.163423 0
1.099906 0.165174 0
1.081290 0.159317 0
1.057502 0.147853 0
1.028685 0.133176 0
0.994571 0.117736 0
0.955451 0.102962 0
0.913499 0.088023 0
0.873252 0.069835 0
0.840302 0.044985 0
0.818781 0.012226 0
0.809463 -0.026650 0
0.810457 -0.067256 0
0.819078 -0.104396 0
0.833194 -0.133965 0
0.851512 -0.153109 0
0.873312 -0.159936 0
0.898050 -0.153476 0
0.925070 -0.133880 0
0.953471 -0.102624 0
0.982107 -0.062537 0
1.009522 -0.017859 0
1.033094 0.025677 0
1.050898 0.063362 0
1.062228 0.092973 0
1.066861 0.113570 0
1.064871 0.125276 0
1.056512 0.129114 0
1.042150 0.126790 0
1.022289 0.120331 0
0.997727 0.111559 0
0.969806 0.101505 0
0.940568 0.090102 0
0.912572 0.076452 0
0.888343 0.059617 0
0.869693 0.039468 0
0.857340 0.017052 0
0.850914 -0.005663 0
0.849322 -0.026300 0
0.851287 -0.042489 0
0.855592 -0.052245 0
0.861100 -0.053180 0
0.866432 -0.052783 0
1.000000 0.000003 0
0.998598 -0.025840 0
0.994357 -0.054641 0
0.987131 -0.090152 0
0.977090 -0.137905 0
0.965797 -0.207093 0
0.959730 -0.311693 0
0.981293 -0.504092 0
1.143689 -0.499331 0
1.129819 -0.275134 0
1.025701 -0.153362 0
0.969260 -0.104652 0
0.944719 -0.070123 0
0.945999 -0.027800 0
0.946128 0.023441 0
0.932539 0.071868 0
0.904663 0.109214 0
0.862604 0.130986 0
0.807458 0.135127 0
0.742658 0.122690 0
0.676161 0.097842 0
0.620614 0.064906 0
0.588424 0.025139 0
0.584001 -0.025697 0
0.605390 -0.082473 0
0.649558 -0.123561 0
0.713149 -0.129550 0
0.791264 -0.094228 0
0.874213 -0.028466 0
0.944367 0.040027 0
0.991689 0.093599 0
1.021405 0.134175 0
1.037463 0.164907 0
1.041606 0.187134 0
1.035108 0.201252 0
1.019005 0.207348 0
0.993842 0.205764 0
0.959197 0.197772 0
0.913591 0.186028 0
0.855862 0.173463 0
0.788431 0.159973 0
0.720118 0.140091 0
0.664299 0.106146 0
0.631884 0.054670 0
0.624614 -0.010501 0
0.634176 -0.080073 0
0.651980 -0.144101 0
0.674218 -0.195207 0
0.700722 -0.228044 0
0.732840 -0.238480 0
0.771675 -0.224192 0
0.816972 -0.185926 0
0.866870 -0.128157 0
0.918187 -0.058679 0
0.965212 0.010738 0
1.001678 0.069767 0
1.026758 0.115208 0
1.040926 0.147444 0
1.045029 0.167579 0
1.039972 0.177233 0
1.026429 0.178517 0
1.004688 0.174023 0
0.974876 0.166453 0
0.937850 0.157520 0
0.896404 0.146560 0
0.855630 0.130294 0
0.821489 0.104743 0
0.798305 0.068179 0
0.787177 0.022682 0
0.786331 -0.026748 0
0.792319 -0.074536 0
0.802296 -0.116335 0
0.814701 -0.149243 0
0.829029 -0.171238 0
0.845411 -0.180780 0
0.864155 -0.176841 0
0.885336 -0.159280 0
0.908573 -0.129238 0
0.933039 -0.089267 0
0.957590 -0.043132 0
0.980593 0.004093 0
0.999597 0.047238 0
1.013324 0.083052 0
1.021055 0.110177 0
1.022426 0.128472 0
1.017316 0.138782 0
1.005851 0.142610 0
0.988527 0.141626 0
0.966434 0.137053 0
0.941411 0.129188 0
0.915913 0.117405 0
0.892521 0.100790 0
0.873293 0.079039 0
0.859308 0.053070 0
0.850633 0.024962 0
0.846603 -0.002579 0
0.846161 -0.026847 0
0.848184 -0.045498 0
0.851726 -0.056696 0
0.856020 -0.058020 0
0.860147 -0.057713 0
1.000000 0.000004 0
0.997177 -0.021413 0
0.988352 -0.045307 0
0.972163 -0.075010 0
0.945965 -0.115991 0
0.905014 -0.179161 0
0.840659 -0.288423 0
0.737765 -0.561273 0
0.553735 -0.538418 0
-0.000251 -0.167326 0
0.401841 -0.032851 0
0.331154 -0.049706 0
0.340028 -0.057711 0
0.380184 -0.035951 0
0.422872 0.022897 0
0.433231 0.088787 0
0.418651 0.145101 0
0.381003 0.187483 0
0.323497 0.211515 0
0.255039 0.211121 0
0.192261 0.179670 0
0.155764 0.116022 0
0.159556 0.029253 0
0.197748 -0.063356 0
0.253509 -0.143740 0
0.317591 -0.197574 0
0.389358 -0.214153 0
0.471253 -0.188983 0
0.563878 -0.126786 0
0.660347 -0.043456 0
0.742815 0.034890 0
0.802324 0.095084 0
0.842702 0.141705 0
0.866336 0.178116 0
0.874259 0.205303 0
0.866885 0.224056 0
0.844043 0.235839 0
0.805476 0.242803 0
0.752607 0.246213 0
0.691300 0.243665 0
0.632872 0.228162 0
0.590165 0.192015 0
0.570690 0.133141 0
0.573316 0.057447 0
0.590514 -0.023692 0
0.612175 -0.099708 0
0.632477 -0.165092 0
0.650098 -0.217060 0
0.666669 -0.252681 0
0.685486 -0.268389 0
0.710024 -0.260896 0
0.742302 -0.229111 0
0.781921 -0.175762 0
0.826366 -0.107409 0
0.871860 -0.033396 0
0.912037 0.035153 0
0.942845 0.091285 0
0.963512 0.134092 0
0.973927 0.164368 0
0.974197 0.183765 0
0.964437 0.194591 0
0.944915 0.199396 0
0.916718 0.200005 0
0.882681 0.196199 0
0.847705 0.185173 0
0.817587 0.162928 0
0.796744 0.127149 0
0.786549 0.079287 0
0.785539 0.024190 0
0.790871 -0.031802 0
0.799453 -0.083230 0
0.809095 -0.126787 0
0.818689 -0.160708 0
0.828103 -0.183829 0
0.837968 -0.195073 0
0.849299 -0.193411 0
0.862989 -0.178307 0
0.879361 -0.150336 0
0.898011 -0.111564 0
0.917962 -0.065423 0
0.937891 -0.016339 0
0.955739 0.030622 0
0.969716 0.071504 0
0.978722 0.104458 0
0.982065 0.129005 0
0.979395 0.145679 0
0.970779 0.155570 0
0.956863 0.159738 0
0.939023 0.158664 0
0.919306 0.152016 0
0.900060 0.138982 0
0.883352 0.119062 0
0.870478 0.092820 0
0.861830 0.062118 0
0.857082 0.029747 0
0.855511 -0.001201 0
0.856228 -0.027891 0
0.858344 -0.048064 0
0.861166 -0.060091 0
0.864255 -0.061610 0
0.867170 -0.061333 0
1.000000 0.000005 0
0.996193 -0.014216 0
0.984195 -0.029637 0
0.961795 -0.047775 0
0.924379 -0.070766 0
0.862674 -0.101796 0
0.756860 -0.144454 0
0.563463 -0.217178 0
0.072761 -0.000209 0
-0.533922 0.133800 0
0.000000 0.000067 0
-0.031795 -0.053939 0
-0.056990 -0.119163 0
-0.034986 -0.110654 0
-0.011853 -0.029616 0
0.010223 0.076079 0
0.015464 0.161432 0
0.002312 0.226130 0
-0.022886 0.261081 0
-0.047114 0.253917 0
-0.051960 0.197107 0
-0.021110 0.097601 0
0.030972 -0.016856 0
0.084887 -0.119660 0
0.134576 -0.202325 0
0.180847 -0.259419 0
0.228804 -0.283221 0
0.285181 -0.268758 0
0.354507 -0.217570 0
0.436502 -0.138920 0
0.523303 -0.048388 0
0.597766 0.034278 0
0.651943 0.100884 0
0.687180 0.155567 0
0.704014 0.200694 0
0.702583 0.237554 0
0.683655 0.267163 0
0.650214 0.289199 0
0.609212 0.300194 0
0.571604 0.293188 0
0.548760 0.261097 0
0.546864 0.202264 0
0.564244 0.122985 0
0.593751 0.034835 0
0.625253 -0.049370 0
0.651707 -0.122045 0
0.670518 -0.182034 0
0.681407 -0.229408 0
0.686212 -0.263442 0
0.688836 -0.281845 0
0.694497 -0.281017 0
0.707933 -0.257832 0
0.731333 -0.212232 0
0.763505 -0.148628 0
0.800827 -0.074942 0
0.838333 -0.001228 0
0.869873 0.063723 0
0.892905 0.116352 0
0.906389 0.156883 0
0.909845 0.186714 0
0.903264 0.207790 0
0.887507 0.221732 0
0.864953 0.228676 0
0.839791 0.226523 0