# vtk DataFile Version 2.0
generated by CFD-lab course output (written by Tobias Neckel) 
ASCII

DATASET STRUCTURED_GRID
DIMENSIONS  101 21 1 
POINTS 2121 float

0.000000 0.000000 0
0.100000 0.000000 0
0.200000 0.000000 0
0.300000 0.000000 0
0.400000 0.000000 0
0.500000 0.000000 0
0.600000 0.000000 0
0.700000 0.000000 0
0.800000 0.000000 0
0.900000 0.000000 0
1.000000 0.000000 0
1.100000 0.000000 0
1.200000 0.000000 0
1.300000 0.000000 0
1.400000 0.000000 0
1.500000 0.000000 0
1.600000 0.000000 0
1.700000 0.000000 0
1.800000 0.000000 0
1.900000 0.000000 0
2.000000 0.000000 0
2.100000 0.000000 0
2.200000 0.000000 0
2.300000 0.000000 0
2.400000 0.000000 0
2.500000 0.000000 0
2.600000 0.000000 0
2.700000 0.000000 0
2.800000 0.000000 0
2.900000 0.000000 0
3.000000 0.000000 0
3.100000 0.000000 0
3.200000 0.000000 0
3.300000 0.000000 0
3.400000 0.000000 0
3.500000 0.000000 0
3.600000 0.000000 0
3.700000 0.000000 0
3.800000 0.000000 0
3.900000 0.000000 0
4.000000 0.000000 0
4.100000 0.000000 0
4.200000 0.000000 0
4.300000 0.000000 0
4.400000 0.000000 0
4.500000 0.000000 0
4.600000 0.000000 0
4.700000 0.000000 0
4.800000 0.000000 0
4.900000 0.000000 0
5.000000 0.000000 0
5.100000 0.000000 0
5.200000 0.000000 0
5.300000 0.000000 0
5.400000 0.000000 0
5.500000 0.000000 0
5.600000 0.000000 0
5.700000 0.000000 0
5.800000 0.000000 0
5.900000 0.000000 0
6.000000 0.000000 0
6.100000 0.000000 0
6.200000 0.000000 0
6.300000 0.000000 0
6.400000 0.000000 0
6.500000 0.000000 0
6.600000 0.000000 0
6.700000 0.000000 0
6.800000 0.000000 0
6.900000 0.000000 0
7.000000 0.000000 0
7.100000 0.000000 0
7.200000 0.000000 0
7.300000 0.000000 0
7.400000 0.000000 0
7.500000 0.000000 0
7.600000 0.000000 0
7.700000 0.000000 0
7.800000 0.000000 0
7.900000 0.000000 0
8.000000 0.000000 0
8.100000 0.000000 0
8.200000 0.000000 0
8.300000 0.000000 0
8.400000 0.000000 0
8.500000 0.000000 0
8.600000 0.000000 0
8.700000 0.000000 0
8.800000 0.000000 0
8.900000 0.000000 0
9.000000 0.000000 0
9.100000 0.000000 0
9.200000 0.000000 0
9.300000 0.000000 0
9.400000 0.000000 0
9.500000 0.000000 0
9.600000 0.000000 0
9.700000 0.000000 0
9.800000 0.000000 0
9.900000 0.000000 0
10.000000 0.000000 0
0.000000 0.100000 0
0.100000 0.100000 0
0.200000 0.100000 0
0.300000 0.100000 0
0.400000 0.100000 0
0.500000 0.100000 0
0.600000 0.100000 0
0.700000 0.100000 0
0.800000 0.100000 0
0.900000 0.100000 0
1.000000 0.100000 0
1.100000 0.100000 0
1.200000 0.100000 0
1.300000 0.100000 0
1.400000 0.100000 0
1.500000 0.100000 0
1.600000 0.100000 0
1.700000 0.100000 0
1.800000 0.100000 0
1.900000 0.100000 0
2.000000 0.100000 0
2.100000 0.100000 0
2.200000 0.100000 0
2.300000 0.100000 0
2.400000 0.100000 0
2.500000 0.100000 0
2.600000 0.100000 0
2.700000 0.100000 0
2.800000 0.100000 0
2.900000 0.100000 0
3.000000 0.100000 0
3.100000 0.100000 0
3.200000 0.100000 0
3.300000 0.100000 0
3.400000 0.100000 0
3.500000 0.100000 0
3.600000 0.100000 0
3.700000 0.100000 0
3.800000 0.100000 0
3.900000 0.100000 0
4.000000 0.100000 0
4.100000 0.100000 0
4.200000 0.100000 0
4.300000 0.100000 0
4.400000 0.100000 0
4.500000 0.100000 0
4.600000 0.100000 0
4.700000 0.100000 0
4.800000 0.100000 0
4.900000 0.100000 0
5.000000 0.100000 0
5.100000 0.100000 0
5.200000 0.100000 0
5.300000 0.100000 0
5.400000 0.100000 0
5.500000 0.100000 0
5.600000 0.100000 0
5.700000 0.100000 0
5.800000 0.100000 0
5.900000 0.100000 0
6.000000 0.100000 0
6.100000 0.100000 0
6.200000 0.100000 0
6.300000 0.100000 0
6.400000 0.100000 0
6.500000 0.100000 0
6.600000 0.100000 0
6.700000 0.100000 0
6.800000 0.100000 0
6.900000 0.100000 0
7.000000 0.100000 0
7.100000 0.100000 0
7.200000 0.100000 0
7.300000 0.100000 0
7.400000 0.100000 0
7.500000 0.100000 0
7.600000 0.100000 0
7.700000 0.100000 0
7.800000 0.100000 0
7.900000 0.100000 0
8.000000 0.100000 0
8.100000 0.100000 0
8.200000 0.100000 0
8.300000 0.100000 0
8.400000 0.100000 0
8.500000 0.100000 0
8.600000 0.100000 0
8.700000 0.100000 0
8.800000 0.100000 0
8.900000 0.100000 0
9.000000 0.100000 0
9.100000 0.100000 0
9.200000 0.100000 0
9.300000 0.100000 0
9.400000 0.100000 0
9.500000 0.100000 0
9.600000 0.100000 0
9.700000 0.100000 0
9.800000 0.100000 0
9.900000 0.100000 0
10.000000 0.100000 0
0.000000 0.200000 0
0.100000 0.200000 0
0.200000 0.200000 0
0.300000 0.200000 0
0.400000 0.200000 0
0.500000 0.200000 0
0.600000 0.200000 0
0.700000 0.200000 0
0.800000 0.200000 0
0.900000 0.200000 0
1.000000 0.200000 0
1.100000 0.200000 0
1.200000 0.200000 0
1.300000 0.200000 0
1.400000 0.200000 0
1.500000 0.200000 0
1.600000 0.200000 0
1.700000 0.200000 0
1.800000 0.200000 0
1.900000 0.200000 0
2.000000 0.200000 0
2.100000 0.200000 0
2.200000 0.200000 0
2.300000 0.200000 0
2.400000 0.200000 0
2.500000 0.200000 0
2.600000 0.200000 0
2.700000 0.200000 0
2.800000 0.200000 0
2.900000 0.200000 0
3.000000 0.200000 0
3.100000 0.200000 0
3.200000 0.200000 0
3.300000 0.200000 0
3.400000 0.200000 0
3.500000 0.200000 0
3.600000 0.200000 0
3.700000 0.200000 0
3.800000 0.200000 0
3.900000 0.200000 0
4.000000 0.200000 0
4.100000 0.200000 0
4.200000 0.200000 0
4.300000 0.200000 0
4.400000 0.200000 0
4.500000 0.200000 0
4.600000 0.200000 0
4.700000 0.200000 0
4.800000 0.200000 0
4.900000 0.200000 0
5.000000 0.200000 0
5.100000 0.200000 0
5.200000 0.200000 0
5.300000 0.200000 0
5.400000 0.200000 0
5.500000 0.200000 0
5.600000 0.200000 0
5.700000 0.200000 0
5.800000 0.200000 0
5.900000 0.200000 0
6.000000 0.200000 0
6.100000 0.200000 0
6.200000 0.200000 0
6.300000 0.200000 0
6.400000 0.200000 0
6.500000 0.200000 0
6.600000 0.200000 0
6.700000 0.200000 0
6.800000 0.200000 0
6.900000 0.200000 0
7.000000 0.200000 0
7.100000 0.200000 0
7.200000 0.200000 0
7.300000 0.200000 0
7.400000 0.200000 0
7.500000 0.200000 0
7.600000 0.200000 0
7.700000 0.200000 0
7.800000 0.200000 0
7.900000 0.200000 0
8.000000 0.200000 0
8.100000 0.200000 0
8.200000 0.200000 0
8.300000 0.200000 0
8.400000 0.200000 0
8.500000 0.200000 0
8.600000 0.200000 0
8.700000 0.200000 0
8.800000 0.200000 0
8.900000 0.200000 0
9.000000 0.200000 0
9.100000 0.200000 0
9.200000 0.200000 0
9.300000 0.200000 0
9.400000 0.200000 0
9.500000 0.200000 0
9.600000 0.200000 0
9.700000 0.200000 0
9.800000 0.200000 0
9.900000 0.200000 0
10.000000 0.200000 0
0.000000 0.300000 0
0.100000 0.300000 0
0.200000 0.300000 0
0.300000 0.300000 0
0.400000 0.300000 0
0.500000 0.300000 0
0.600000 0.300000 0
0.700000 0.300000 0
0.800000 0.300000 0
0.900000 0.300000 0
1.000000 0.300000 0
1.100000 0.300000 0
1.200000 0.300000 0
1.300000 0.300000 0
1.400000 0.300000 0
1.500000 0.300000 0
1.600000 0.300000 0
1.700000 0.300000 0
1.800000 0.300000 0
1.900000 0.300000 0
2.000000 0.300000 0
2.100000 0.300000 0
2.200000 0.300000 0
2.300000 0.300000 0
2.400000 0.300000 0
2.500000 0.300000 0
2.600000 0.300000 0
2.700000 0.300000 0
2.800000 0.300000 0
2.900000 0.300000 0
3.000000 0.300000 0
3.100000 0.300000 0
3.200000 0.300000 0
3.300000 0.300000 0
3.400000 0.300000 0
3.500000 0.300000 0
3.600000 0.300000 0
3.700000 0.300000 0
3.800000 0.300000 0
3.900000 0.300000 0
4.000000 0.300000 0
4.100000 0.300000 0
4.200000 0.300000 0
4.300000 0.300000 0
4.400000 0.300000 0
4.500000 0.300000 0
4.600000 0.300000 0
4.700000 0.300000 0
4.800000 0.300000 0
4.900000 0.300000 0
5.000000 0.300000 0
5.100000 0.300000 0
5.200000 0.300000 0
5.300000 0.300000 0
5.400000 0.300000 0
5.500000 0.300000 0
5.600000 0.300000 0
5.700000 0.300000 0
5.800000 0.300000 0
5.900000 0.300000 0
6.000000 0.300000 0
6.100000 0.300000 0
6.200000 0.300000 0
6.300000 0.300000 0
6.400000 0.300000 0
6.500000 0.300000 0
6.600000 0.300000 0
6.700000 0.300000 0
6.800000 0.300000 0
6.900000 0.300000 0
7.000000 0.300000 0
7.100000 0.300000 0
7.200000 0.300000 0
7.300000 0.300000 0
7.400000 0.300000 0
7.500000 0.300000 0
7.600000 0.300000 0
7.700000 0.300000 0
7.800000 0.300000 0
7.900000 0.300000 0
8.000000 0.300000 0
8.100000 0.300000 0
8.200000 0.300000 0
8.300000 0.300000 0
8.400000 0.300000 0
8.500000 0.300000 0
8.600000 0.300000 0
8.700000 0.300000 0
8.800000 0.300000 0
8.900000 0.300000 0
9.000000 0.300000 0
9.100000 0.300000 0
9.200000 0.300000 0
9.300000 0.300000 0
9.400000 0.300000 0
9.500000 0.300000 0
9.600000 0.300000 0
9.700000 0.300000 0
9.800000 0.300000 0
9.900000 0.300000 0
10.000000 0.300000 0
0.000000 0.400000 0
0.100000 0.400000 0
0.200000 0.400000 0
0.300000 0.400000 0
0.400000 0.400000 0
0.500000 0.400000 0
0.600000 0.400000 0
0.700000 0.400000 0
0.800000 0.400000 0
0.900000 0.400000 0
1.000000 0.400000 0
1.100000 0.400000 0
1.200000 0.400000 0
1.300000 0.400000 0
1.400000 0.400000 0
1.500000 0.400000 0
1.600000 0.400000 0
1.700000 0.400000 0
1.800000 0.400000 0
1.900000 0.400000 0
2.000000 0.400000 0
2.100000 0.400000 0
2.200000 0.400000 0
2.300000 0.400000 0
2.400000 0.400000 0
2.500000 0.400000 0
2.600000 0.400000 0
2.700000 0.400000 0
2.800000 0.400000 0
2.900000 0.400000 0
3.000000 0.400000 0
3.100000 0.400000 0
3.200000 0.400000 0
3.300000 0.400000 0
3.400000 0.400000 0
3.500000 0.400000 0
3.600000 0.400000 0
3.700000 0.400000 0
3.800000 0.400000 0
3.900000 0.400000 0
4.000000 0.400000 0
4.100000 0.400000 0
4.200000 0.400000 0
4.300000 0.400000 0
4.400000 0.400000 0
4.500000 0.400000 0
4.600000 0.400000 0
4.700000 0.400000 0
4.800000 0.400000 0
4.900000 0.400000 0
5.000000 0.400000 0
5.100000 0.400000 0
5.200000 0.400000 0
5.300000 0.400000 0
5.400000 0.400000 0
5.500000 0.400000 0
5.600000 0.400000 0
5.700000 0.400000 0
5.800000 0.400000 0
5.900000 0.400000 0
6.000000 0.400000 0
6.100000 0.400000 0
6.200000 0.400000 0
6.300000 0.400000 0
6.400000 0.400000 0
6.500000 0.400000 0
6.600000 0.400000 0
6.700000 0.400000 0
6.800000 0.400000 0
6.900000 0.400000 0
7.000000 0.400000 0
7.100000 0.400000 0
7.200000 0.400000 0
7.300000 0.400000 0
7.400000 0.400000 0
7.500000 0.400000 0
7.600000 0.400000 0
7.700000 0.400000 0
7.800000 0.400000 0
7.900000 0.400000 0
8.000000 0.400000 0
8.100000 0.400000 0
8.200000 0.400000 0
8.300000 0.400000 0
8.400000 0.400000 0
8.500000 0.400000 0
8.600000 0.400000 0
[...]
POINT_DATA 2121 

VECTORS velocity float
0.500000 0.000000 0
-0.000003 0.000000 0
-0.000013 0.000000 0
-0.000029 0.000000 0
-0.000054 0.000000 0
-0.000086 0.000000 0
-0.000117 0.000000 0
-0.000146 0.000000 0
-0.000169 0.000000 0
-0.000178 0.000000 0
-0.000171 0.000000 0
-0.000135 0.000000 0
-0.000055 0.000000 0
0.000078 0.000000 0
0.000262 0.000000 0
0.000493 0.000000 0
0.000749 0.000000 0
0.001002 0.000000 0
0.001218 0.000000 0
0.001365 0.000000 0
0.001414 0.000000 0
0.001342 0.000000 0
0.001135 0.000000 0
0.000787 0.000000 0
0.000304 0.000000 0
-0.000303 0.000000 0
-0.001010 0.000000 0
-0.001787 0.000000 0
-0.002563 0.000000 0
-0.003216 0.000000 0
-0.003604 0.000000 0
-0.003605 0.000000 0
-0.003163 0.000000 0
-0.002331 0.000000 0
-0.001264 0.000000 0
-0.000129 0.000000 0
0.000974 0.000000 0
0.001960 0.000000 0
0.002774 0.000000 0
0.003392 0.000000 0
0.003805 0.000000 0
0.004014 0.000000 0
0.004026 0.000000 0
0.003843 0.000000 0
0.003467 0.000000 0
0.002898 0.000000 0
0.002125 0.000000 0
0.001135 0.000000 0
-0.000074 0.000000 0
-0.001413 0.000000 0
-0.002751 0.000000 0
-0.004014 0.000000 0
-0.005111 0.000000 0
-0.005937 0.000000 0
-0.006370 0.000000 0
-0.006290 0.000000 0
-0.005609 0.000000 0
-0.004331 0.000000 0
-0.002613 0.000000 0
-0.000749 0.000000 0
0.001045 0.000000 0
0.002677 0.000000 0
0.004056 0.000000 0
0.005111 0.000000 0
0.005798 0.000000 0
0.006103 0.000000 0
0.006028 0.000000 0
0.005593 0.000000 0
0.004826 0.000000 0
0.003767 0.000000 0
0.002478 0.000000 0
0.001055 0.000000 0
-0.000339 0.000000 0
-0.001499 0.000000 0
-0.002426 0.000000 0
-0.003169 0.000000 0
-0.003777 0.000000 0
-0.004282 0.000000 0
-0.004690 0.000000 0
-0.004969 0.000000 0
-0.005048 0.000000 0
-0.004829 0.000000 0
-0.004216 0.000000 0
-0.003167 0.000000 0
-0.001750 0.000000 0
-0.000145 0.000000 0
0.001513 0.000000 0
0.003147 0.000000 0
0.004651 0.000000 0
0.005901 0.000000 0
0.006767 0.000000 0
0.007128 0.000000 0
0.006907 0.000000 0
0.006115 0.000000 0
0.004879 0.000000 0
0.003421 0.000000 0
0.002005 0.000000 0
0.000899 0.000000 0
0.000225 0.000000 0
-0.000110 0.000000 0
-0.000268 0.000000 0
1.000000 0.000003 0
1.002550 -0.004665 0
1.010542 -0.010161 0
1.024409 -0.016192 0
1.044637 -0.022566 0
1.071567 -0.028917 0
1.105081 -0.034591 0
1.144189 -0.038682 0
1.186741 -0.040253 0
1.229282 -0.038915 0
1.268607 -0.035137 0
1.302674 -0.029783 0
1.330522 -0.023606 0
1.351809 -0.017078 0
1.366438 -0.010435 0
1.374382 -0.003839 0
1.375726 0.002520 0
1.370759 0.008422 0
1.360039 0.013613 0
1.344427 0.017825 0
1.325060 0.020824 0
1.303296 0.022442 0
1.280626 0.022590 0
1.258582 0.021262 0
1.238655 0.018530 0
1.222219 0.014525 0
1.210481 0.009423 0
1.204445 0.003458 0
1.204809 -0.002897 0
1.211738 -0.008819 0
1.224497 -0.013290 0
1.241201 -0.015365 0
1.258950 -0.014490 0
1.274427 -0.010786 0
1.284748 -0.005050 0
1.288133 0.001696 0
1.284028 0.008614 0
1.272752 0.015073 0
1.255180 0.020625 0
1.232503 0.025013 0
1.206044 0.028124 0
1.177153 0.029923 0
1.147164 0.030414 0
1.117380 0.029612 0
1.089080 0.027523 0
1.063525 0.024127 0
1.041947 0.019368 0
1.025513 0.013163 0
1.015261 0.005546 0
1.012017 -0.002979 0
1.016361 -0.011628 0
1.028512 -0.019769 0
1.048200 -0.026835 0
1.074553 -0.032209 0
1.106073 -0.035233 0
1.140631 -0.035274 0
1.175452 -0.031883 0
1.207216 -0.025072 0
1.232422 -0.015613 0
1.248081 -0.004961 0
1.252561 0.005581 0
1.246073 0.015302 0
1.229810 0.023699 0
1.205462 0.030346 0
1.175058 0.034953 0
1.140810 0.037366 0
1.104987 0.037543 0
1.069806 0.035521 0
1.037337 0.031397 0
1.009383 0.025357 0
0.987329 0.017739 0
0.971975 0.009125 0
0.963473 0.000528 0
0.961488 -0.006968 0
0.965321 -0.012973 0
0.974134 -0.017693 0
0.987186 -0.021417 0
1.003894 -0.024370 0
1.023818 -0.026634 0
1.046558 -0.028099 0
1.071551 -0.028439 0
1.097858 -0.027172 0
1.124000 -0.023810 0
1.147949 -0.018135 0
1.167296 -0.010474 0
1.179631 -0.001674 0
1.183172 0.007449 0
1.177487 0.016354 0
1.163124 0.024486 0
1.141240 0.031176 0
1.113610 0.035704 0
1.082565 0.037385 0
1.050822 0.035755 0
1.021168 0.030815 0
0.996002 0.023216 0
0.976876 0.014206 0
0.964214 0.005420 0
0.957368 -0.001354 0
0.954910 -0.004909 0
0.954780 -0.003006 0
0.952501 -0.000360 0
1.000000 0.000006 0
1.002865 -0.010579 0
1.011303 -0.021882 0
1.025698 -0.034114 0
1.046762 -0.047170 0
1.075255 -0.060443 0
1.111606 -0.072611 0
1.155219 -0.081645 0
1.203918 -0.085079 0
1.252127 -0.081860 0
1.295368 -0.073391 0
1.331712 -0.061910 0
1.360848 -0.049126 0
1.383037 -0.035909 0
1.398478 -0.022569 0
1.407129 -0.009286 0
1.408937 0.003623 0
1.404100 0.015682 0
1.393127 0.026325 0
1.376904 0.034970 0
1.356656 0.041118 0
1.333846 0.044420 0
1.310078 0.044699 0
1.286986 0.041955 0
1.266135 0.036348 0
1.248940 0.028159 0
1.236632 0.017763 0
1.230296 0.005668 0
1.230893 -0.007291 0
1.239044 -0.019678 0
1.254387 -0.029448 0
1.275059 -0.034435 0
1.297712 -0.033209 0
1.318172 -0.025784 0
1.332614 -0.013698 0
1.338760 0.000725 0
1.336288 0.015386 0
1.325927 0.028852 0
1.308904 0.040252 0
1.286653 0.049139 0
1.260626 0.055351 0
1.232205 0.058879 0
1.202688 0.059771 0
1.173299 0.058081 0
1.145208 0.053851 0
1.119523 0.047128 0
1.097252 0.038006 0
1.079234 0.026679 0
1.066082 0.013489 0
1.058262 -0.001107 0
1.056408 -0.016501 0
1.061093 -0.031844 0
1.072532 -0.046044 0
1.090538 -0.057874 0
1.114617 -0.066075 0
1.143931 -0.069373 0
1.177017 -0.066578 0
1.211468 -0.056960 0
1.243828 -0.040856 0
1.269914 -0.020131 0
1.285808 0.002015 0
1.289762 0.022755 0
1.282771 0.040612 0
1.266588 0.054752 0
1.243299 0.064652 0
1.215130 0.070069 0
1.184307 0.071002 0
1.152915 0.067647 0
1.122773 0.060420 0
1.095302 0.050005 0
1.071425 0.037406 0
1.051552 0.023854 0
1.035724 0.010485 0
1.024013 -0.001851 0
1.016544 -0.012650 0
1.013179 -0.021868 0
1.013715 -0.029762 0
1.018076 -0.036634 0
1.026405 -0.042664 0
1.038976 -0.047732 0
1.055934 -0.051298 0
1.077001 -0.052444 0
1.101289 -0.050083 0
1.127246 -0.043286 0
1.152681 -0.031672 0
1.174836 -0.015864 0
1.190815 0.002158 0
1.198616 0.020065 0
1.198138 0.036265 0
1.190253 0.049532 0
1.176336 0.058694 0
1.158093 0.062808 0
1.137328 0.061417 0
1.115704 0.054839 0
1.094573 0.044312 0
1.074903 0.031807 0
1.057312 0.019527 0
1.042199 0.009323 0
1.029927 0.002608 0
1.020397 0.002429 0
1.013691 0.004216 0
1.000000 0.000009 0
1.002460 -0.015987 0
1.010053 -0.032999 0
1.023448 -0.051651 0
1.043844 -0.072114 0
1.072842 -0.093746 0
1.112072 -0.114542 0
1.162082 -0.130990 0
1.221762 -0.137165 0
1.278769 -0.130375 0
1.326195 -0.114725 0
1.363381 -0.095256 0
1.391891 -0.074929 0
1.413308 -0.054708 0
1.428359 -0.034527 0
1.436806 -0.014301 0
1.438097 0.005544 0
1.432118 0.024227 0
1.419243 0.040803 0
1.400421 0.054289 0
1.377042 0.063876 0
1.350773 0.069013 0
1.323431 0.069444 0
1.296848 0.065200 0
1.272737 0.056573 0
1.252583 0.044028 0
1.237611 0.028073 0
1.228921 0.009205 0
1.227803 -0.011635 0
1.235597 -0.032300 0
1.252548 -0.049295 0
1.277021 -0.058683 0
1.305477 -0.057600 0
1.332875 -0.045692 0
1.353734 -0.025644 0
1.364116 -0.001980 0
1.363448 0.021448 0
1.353339 0.042457 0
1.335752 0.059897 0
1.312629 0.073290 0
1.285681 0.082571 0
1.256357 0.087859 0
1.225893 0.089318 0
1.195382 0.087090 0
1.165823 0.081297 0
1.138140 0.072081 0
1.113173 0.059654 0
1.091628 0.044330 0
1.074026 0.026517 0
1.060649 0.006693 0
1.051576 -0.014460 0
1.046947 -0.035892 0
1.047100 -0.056278 0
1.052607 -0.074290 0
1.064417 -0.088620 0
1.083496 -0.097669 0
1.110012 -0.099415 0
1.142731 -0.091879 0
1.178850 -0.074056 0
1.214174 -0.046940 0
1.243616 -0.014268 0
1.262367 0.018338 0
1.268939 0.046870 0
1.264810 0.069816 0
1.251926 0.086409 0
1.232403 0.096356 0
1.208338 0.099757 0
1.181659 0.097053 0
1.154014 0.089009 0
1.126713 0.076705 0
1.100739 0.061488 0
1.076809 0.044825 0
1.055404 0.028066 0
1.036677 0.012211 0
1.020553 -0.002141 0
1.006924 -0.014865 0
0.995949 -0.026314 0
0.988384 -0.037060 0
0.985376 -0.047533 0
0.988100 -0.057625 0
0.997257 -0.066461 0
1.012747 -0.072522 0
1.033689 -0.074051 0
1.058627 -0.069522 0
1.085742 -0.058058 0
1.112957 -0.039802 0
1.137865 -0.016324 0
1.157663 0.009037 0
1.170387 0.032855 0
1.176019 0.052984 0
1.175172 0.067869 0
1.168752 0.076399 0
1.157774 0.078148 0
1.143231 0.073574 0
1.126095 0.064020 0
1.107395 0.051471 0
1.088261 0.038127 0
1.069816 0.026035 0
1.052969 0.016896 0
1.038485 0.013232 0
1.028665 0.012707 0
1.000000 0.000011 0
1.001923 -0.020649 0
1.008022 -0.042871 0
1.019247 -0.067900 0
1.037393 -0.096552 0
1.065278 -0.128661 0
1.106731 -0.161846 0
1.165170 -0.191336 0
1.245136 -0.201775 0
1.313128 -0.186296 0
1.360901 -0.157996 0
1.393582 -0.127600 0
1.416868 -0.099052 0
1.434535 -0.072377 0
1.448111 -0.046068 0
1.456803 -0.019026 0
1.458464 0.008307 0
1.451927 0.034531 0
1.437233 0.058016 0
1.415444 0.077165 0
1.388215 0.090760 0
1.357510 0.098026 0
1.325447 0.098620 0
1.294165 0.092645 0
1.265621 0.080610 0
1.241380 0.063289 0
1.222498 0.041433 0
1.209646 0.015485 0
1.203471 -0.013956 0
1.205758 -0.044414 0
1.218008 -0.070865 0
1.239980 -0.087361 0
1.269890 -0.089065 0
1.303912 -0.074048 0
1.335689 -0.044941 0
1.357568 -0.008987 0
1.364689 0.026164 0
1.358887 0.056547 0
1.343399 0.080961 0
1.321075 0.099209 0
1.294159 0.111622 0
1.264360 0.118664 0
1.232995 0.120743 0
1.201146 0.118149 0
1.169764 0.111091 0
1.139734 0.099776 0
1.111868 0.084514 0
1.086774 0.065824 0
1.064590 0.044466 0
1.044748 0.021341 0
1.026114 -0.002799 0
1.007880 -0.027366 0
0.991113 -0.051701 0
0.978942 -0.075186 0
0.975062 -0.096959 0
0.982233 -0.114963 0
1.001123 -0.125808 0
1.030422 -0.125796 0
1.067433 -0.112297 0
1.108471 -0.084898 0
1.148973 -0.046181 0
1.183451 -0.002570 0
1.206636 0.038167 0
1.217859 0.071764 0
1.218606 0.097057 0
1.210701 0.113656 0
1.196051 0.121745 0
1.176472 0.121971 0
1.153588 0.115364 0
1.128781 0.103279 0
1.103181 0.087309 0
1.077629 0.069187 0
1.052592 0.050615 0
1.028135 0.032998 0
1.004146 0.017101 0
0.980921 0.002735 0
0.959567 -0.011222 0
0.942050 -0.026060 0
0.930783 -0.042379 0
0.927516 -0.059610 0
0.932663 -0.075942 0
0.945477 -0.088872 0
0.964569 -0.095958 0
0.988337 -0.095335 0
1.015174 -0.085997 0
1.043507 -0.067982 0
1.071710 -0.042543 0
1.097837 -0.012451 0
1.119262 0.017914 0
1.134447 0.044751 0
1.143267 0.065965 0
1.145950 0.080208 0
1.142939 0.086940 0
1.134833 0.086520 0
1.122399 0.080149 0
1.106604 0.069643 0
1.088585 0.057107 0
1.069563 0.044616 0
1.050819 0.033940 0
1.033788 0.026733 0
1.021989 0.023681 0
1.000000 0.000014 0
1.001091 -0.024023 0
1.004696 -0.050320 0
1.011862 -0.081013 0
1.024782 -0.118135 0
1.047518 -0.163078 0
1.087086 -0.214435 0
1.153128 -0.269401 0
1.268319 -0.285126 0
1.340202 -0.246133 0
1.372855 -0.195171 0
1.387929 -0.151222 0
1.396498 -0.115883 0
1.404257 -0.085953 0
1.413732 -0.056798 0
1.423779 -0.024659 0
1.428910 0.010416 0
1.424741 0.045453 0
1.410743 0.077280 0
1.388177 0.103301 0
1.358965 0.121805 0
1.325251 0.131777 0
1.289358 0.132785 0
1.253714 0.125024 0
1.220558 0.109361 0
1.191441 0.087157 0
1.166888 0.059814 0
1.146585 0.028242 0
1.129640 -0.007738 0
1.115793 -0.046830 0
1.109450 -0.083513 0
1.114882 -0.110566 0
1.134958 -0.121537 0
1.169197 -0.111494 0
1.212427 -0.079297 0
1.254935 -0.030980 0
1.285009 0.020128 0
1.297098 0.063746 0
1.295314 0.097708 0
1.283479 0.122529 0
1.264436 0.139284 0
1.240279 0.149021 0
1.212606 0.152529 0
1.182717 0.150319 0
1.151738 0.142706 0
1.120698 0.129974 0
1.090463 0.112612 0
1.061393 0.091606 0
1.032761 0.068541 0
1.002620 0.045169 0
0.969146 0.022410 0
0.933014 -0.000887 0
0.898563 -0.027335 0
0.872706 -0.058235 0
0.861030 -0.091906 0
0.864640 -0.123725 0
0.881797 -0.147602 0
0.909914 -0.158188 0
0.946344 -0.152105 0
0.988360 -0.128482 0
1.032923 -0.089250 0
1.076322 -0.039327 0
1.113248 0.012461 0
1.139111 0.057845 0
1.153922 0.093566 0
1.158791 0.118910 0
1.155164 0.133985 0
1.144572 0.139515 0
1.128482 0.136700 0
1.108185 0.127110 0
1.084685 0.112638 0
1.058580 0.095412 0
1.030074 0.077558 0
0.999339 0.060655 0
0.967208 0.045072 0
0.935767 0.029714 0
0.908127 0.012558 0
0.887338 -0.008274 0
0.875398 -0.032998 0
0.872806 -0.059503 0
0.878650 -0.084419 0
0.891394 -0.104424 0
0.909495 -0.116907 0
0.931622 -0.120123 0
0.956623 -0.113224 0
0.983430 -0.096333 0
1.010967 -0.070649 0
1.038026 -0.038511 0
1.062930 -0.003752 0
1.083279 0.028981 0
1.098017 0.056368 0
1.106811 0.076728 0
1.109642 0.089266 0
1.106750 0.094114 0
1.098621 0.092249 0
1.085970 0.085284 0
1.069730 0.075166 0
1.051073 0.063799 0
1.031539 0.052670 0
1.013170 0.042060 0
1.000375 0.036307 0
1.000000 0.000017 0
0.999911 -0.025353 0
0.999853 -0.053636 0
1.000559 -0.087977 0
1.003861 -0.132200 0
1.013994 -0.190962 0
1.040535 -0.267459 0
1.103015 -0.372573 0
1.265636 -0.388845 0
1.310939 -0.290824 0
1.295605 -0.205721 0
1.274641 -0.151244 0
1.256818 -0.115382 0
1.246022 -0.089615 0
1.245759 -0.065594 0
1.257216 -0.034208 0
1.273448 0.007340 0
1.279635 0.052692 0
1.274197 0.094575 0
1.258804 0.128939 0
1.235078 0.153682 0
1.204660 0.167629 0
1.169639 0.170154 0
1.132625 0.161447 0
1.096196 0.142889 0
1.061374 0.116965 0
1.026265 0.086297 0
0.987777 0.052742 0
0.945853 0.016844 0
0.904621 -0.024220 0
0.872828 -0.069954 0
0.862367 -0.112873 0
0.876663 -0.143385 0
0.913160 -0.151516 0
0.966604 -0.130677 0
1.029474 -0.081569 0
1.090863 -0.015999 0
1.137108 0.046240 0
1.163975 0.094578 0
1.175924 0.130085 0
1.176224 0.154819 0
1.167249 0.170491 0
1.150902 0.178303 0
1.128795 0.179015 0
1.102269 0.173107 0
1.072243 0.161048 0
1.038820 0.143818 0
1.000943 0.123524 0
0.957005 0.103239 0
0.907059 0.084958 0
0.855166 0.066810 0
0.809028 0.043220 0
0.776033 0.008612 0
0.759606 -0.037648 0
0.758603 -0.088888 0
0.769523 -0.135725 0
0.789344 -0.171081 0
0.816337 -0.190343 0
0.849519 -0.190745 0
0.887871 -0.171480 0
0.929857 -0.134144 0
0.973283 -0.082896 0
1.015131 -0.024623 0
1.050164 0.031089 0
1.075368 0.077377 0
1.090770 0.112413 0
1.097027 0.135964 0
1.095100 0.148652 0
1.086006 0.151750 0
1.070625 0.147073 0
1.049535 0.136913 0
1.023022 0.123797 0
0.991462 0.109855 0
0.956082 0.095864 0
0.919613 0.080672 0
0.886093 0.061816 0
0.859631 0.037208 0
0.842824 0.006670 0
0.835837 -0.027844 0
0.837155 -0.062860 0
0.844824 -0.094527 0
0.857237 -0.119714 0
0.873318 -0.136183 0
0.892375 -0.142459 0
0.913876 -0.137801 0
0.937258 -0.122322 0
0.961831 -0.097136 0
0.986747 -0.064412 0
1.010940 -0.027338 0
1.032655 0.009664 0
1.049989 0.042432 0
1.062127 0.068582 0
1.068643 0.086999 0
1.069423 0.097539 0
1.064626 0.100927 0
1.054684 0.098530 0
1.040348 0.092000 0
1.022813 0.082804 0
1.003879 0.071839 0
0.985990 0.057894 0
0.973494 0.049352 0
1.000000 0.000019 0
0.998489 -0.023880 0
0.993896 -0.050960 0
0.986079 -0.085012 0
0.975161 -0.131563 0
0.962601 -0.199752 0
0.954621 -0.303459 0
0.973032 -0.494500 0
1.129499 -0.493044 0
1.111951 -0.276100 0
1.003334 -0.158875 0
0.940353 -0.112437 0
0.894315 -0.087267 0
0.862191 -0.074897 0
0.849506 -0.067996 0
0.862815 -0.052352 0
0.899295 -0.012007 0
0.938173 0.044699 0
0.961007 0.098108 0
0.971155 0.142417 0
0.968562 0.175946 0
0.952791 0.197214 0
0.924092 0.204820 0
0.882950 0.198472 0
0.830001 0.180617 0
0.767136 0.157095 0
0.699315 0.133421 0
0.634931 0.108662 0
0.584144 0.075423 0
0.555674 0.026197 0
0.550782 -0.041261 0
0.565918 -0.114406 0
0.597657 -0.172331 0
0.643630 -0.201433 0
0.702390 -0.195611 0
0.772091 -0.155239 0
0.848721 -0.087507 0
0.922784 -0.009368 0
0.980622 0.058890 0
1.019652 0.110277 0
1.043263 0.147956 0
1.053642 0.174341 0
1.052539 0.190981 0
1.041430 0.198950 0
1.021316 0.199256 0
0.992352 0.193421 0
0.953714 0.183910 0
0.904581 0.173420 0
0.846731 0.162425 0
0.786968 0.147010 0
0.735911 0.120444 0
0.702658 0.078250 0
0.690025 0.022092 0
0.693740 -0.040800 0
0.706138 -0.101819 0
0.722425 -0.154463 0
0.741084 -0.194415 0
0.762559 -0.218364 0
0.788004 -0.223642 0
0.818236 -0.208821 0
0.853052 -0.174663 0
0.891131 -0.124602 0
0.930343 -0.064421 0
0.967516 -0.002393 0
0.997891 0.052960 0
1.019833 0.097250 0
1.033053 0.129654 0
1.037752 0.150535 0
1.034297 0.161173 0
1.023009 0.163580 0
1.004135 0.160239 0
0.978166 0.153483 0
0.946487 0.144496 0
0.911970 0.132503 0
0.878788 0.115062 0
0.851218 0.089697 0
0.832121 0.055828 0
0.822196 0.015521 0
0.820324 -0.027327 0
0.824329 -0.068488 0
0.832246 -0.104497 0
0.842824 -0.132915 0
0.855481 -0.152043 0
0.870079 -0.160679 0
0.886653 -0.158103 0
0.905146 -0.144286 0
0.925242 -0.120137 0
0.946338 -0.087619 0
0.967572 -0.049660 0
0.987815 -0.010069 0
1.005205 0.026894 0
1.018436 0.058070 0
1.026755 0.081966 0
1.029743 0.098126 0
1.027292 0.106982 0
1.019638 0.109556 0
1.007470 0.107031 0
0.992060 0.100262 0
0.975340 0.089486 0
0.959757 0.072439 0
0.948774 0.061356 0
1.000000 0.000020 0
0.997120 -0.019248 0
0.988080 -0.041217 0
0.971521 -0.069234 0
0.944772 -0.108718 0
0.903033 -0.170421 0
0.837528 -0.277890 0
0.732896 -0.547448 0
0.547234 -0.527762 0
-0.000078 -0.164659 0
0.391775 -0.034123 0
0.316267 -0.042227 0
0.298338 -0.037224 0
0.306896 -0.044809 0
0.318970 -0.066222 0
0.346064 -0.084001 0
0.397666 -0.068021 0
0.469797 -0.009024 0
0.534552 0.061589 0
0.579074 0.121381 0
0.603634 0.172043 0
0.605487 0.212099 0
0.583907 0.239998 0
0.539572 0.255542 0
0.476268 0.258709 0
0.403644 0.247660 0
0.337701 0.218510 0
0.295329 0.167919 0
0.285914 0.096104 0
0.307664 0.009142 0
0.347181 -0.080201 0
0.389274 -0.159750 0
0.429968 -0.221095 0
0.472312 -0.256248 0
0.521215 -0.259139 0
0.580236 -0.227901 0
0.649738 -0.166695 0
0.726360 -0.085662 0
0.799862 -0.002292 0
0.857895 0.067442 0
0.898964 0.120827 0
0.924713 0.161213 0
0.936182 0.190512 0
0.934117 0.210236 0
0.918807 0.222183 0
0.890197 0.228648 0
0.848902 0.231587 0
0.798300 0.230507 0
0.746093 0.220854 0
0.702661 0.195781 0
0.676147 0.151123 0
0.668445 0.089110 0
0.675556 0.017535 0
0.690494 -0.053757 0
0.707034 -0.117570 0
0.722112 -0.170669 0
0.735204 -0.211215 0
0.747623 -0.237265 0
0.761769 -0.246424 0
0.780093 -0.236528 0
0.803973 -0.207039 0
0.833105 -0.160188 0
0.865749 -0.101009 0
0.899386 -0.036460 0
0.930126 0.025059 0
0.954545 0.077251 0
0.971387 0.118044 0
0.980084 0.147406 0
0.980383 0.166491 0
0.972227 0.177233 0
0.955955 0.181754 0
0.932774 0.181443 0
0.905253 0.176050 0
0.877237 0.163563 0
0.852877 0.141424 0
0.835205 0.108483 0
0.825252 0.066232 0
0.822271 0.018469 0
0.824602 -0.029976 0
0.830262 -0.074779 0
0.837666 -0.113020 0
0.845867 -0.142946 0
0.854555 -0.163435 0
0.863958 -0.173629 0
0.874602 -0.172865 0
0.886995 -0.160910 0
0.901324 -0.138328 0
0.917316 -0.106743 0
0.934287 -0.068818 0
0.951254 -0.027972 0
0.966841 0.011806 0
0.979458 0.047027 0
0.988107 0.075687 0
0.992160 0.096995 0
0.991340 0.111024 0
0.985796 0.118345 0
0.976209 0.119570 0
0.963867 0.114925 0
0.950590 0.104133 0
0.938464 0.084451 0
0.929792 0.071309 0
1.000000 0.000020 0
0.996198 -0.011954 0
0.984153 -0.025352 0
0.961666 -0.041698 0
0.924118 -0.063073 0
0.862269 -0.092507 0
0.756460 -0.133320 0
0.563531 -0.204204 0
0.074317 0.000514 0
-0.527718 0.126217 0
0.000000 0.000004 0
-0.034421 -0.030053 0
-0.054440 -0.077899 0
-0.042867 -0.095532 0
-0.044372 -0.107169 0
-0.038450 -0.131051 0
-0.007623 -0.135744 0
0.055958 -0.092190 0
0.142354 -0.011172 0
0.215625 0.073333 0
0.259001 0.149531 0
0.275458 0.216941 0
0.268722 0.270739 0
0.243416 0.306117 0
0.210078 0.316552 0
0.183641 0.295671 0
0.177559 0.241743 0
0.197607 0.160453 0
0.239916 0.063089 0
0.290244 -0.035071 0
0.334833 -0.122874 0
0.369640 -0.197192 0
0.395268 -0.255368 0
0.416325 -0.292681 0
0.440046 -0.303536 0
0.473643 -0.283763 0
0.521196 -0.233632 0
0.581820 -0.159494 0
0.650101 -0.072647 0
0.714308 0.011173 0
0.764115 0.081136 0
0.798357 0.137120 0
0.817189 0.181575 0
0.820735 0.216323 0
0.809323 0.243174 0
0.784337 0.263324 0
0.749644 0.275806 0
0.712545 0.276230 0
0.682412 0.258067 0
0.666763 0.216960 0
0.667720 0.154664 0
0.682005 0.078845 0
0.703681 0.000048 0
0.725815 -0.072275 0
0.744364 -0.133435 0
0.757467 -0.182632 0
0.764867 -0.219928 0
0.767913 -0.244930 0
0.769481 -0.256112 0
0.773330 -0.251026 0
0.782768 -0.227676 0
0.799269 -0.186379 0
0.822008 -0.130704 0
0.848527 -0.066772 0
0.875595 -0.002200 0