# vtk DataFile Version 2.0
generated by CFD-lab course output (written by Tobias Neckel) 
ASCII

DATASET STRUCTURED_GRID
DIMENSIONS  101 21 1 
POINTS 2121 float

0.000000 0.000000 0
0.100000 0.000000 0
0.200000 0.000000 0
0.300000 0.000000 0
0.400000 0.000000 0
0.500000 0.000000 0
0.600000 0.000000 0
0.700000 0.000000 0
0.800000 0.000000 0
0.900000 0.000000 0
1.000000 0.000000 0
1.100000 0.000000 0
1.200000 0.000000 0
1.300000 0.000000 0
1.400000 0.000000 0
1.500000 0.000000 0
1.600000 0.000000 0
1.700000 0.000000 0
1.800000 0.000000 0
1.900000 0.000000 0
2.000000 0.000000 0
2.100000 0.000000 0
2.200000 0.000000 0
2.300000 0.000000 0
2.400000 0.000000 0
2.500000 0.000000 0
2.600000 0.000000 0
2.700000 0.000000 0
2.800000 0.000000 0
2.900000 0.000000 0
3.000000 0.000000 0
3.100000 0.000000 0
3.200000 0.000000 0
3.300000 0.000000 0
3.400000 0.000000 0
3.500000 0.000000 0
3.600000 0.000000 0
3.700000 0.000000 0
3.800000 0.000000 0
3.900000 0.000000 0
4.000000 0.000000 0
4.100000 0.000000 0
4.200000 0.000000 0
4.300000 0.000000 0
4.400000 0.000000 0
4.500000 0.000000 0
4.600000 0.000000 0
4.700000 0.000000 0
4.800000 0.000000 0
4.900000 0.000000 0
5.000000 0.000000 0
5.100000 0.000000 0
5.200000 0.000000 0
5.300000 0.000000 0
5.400000 0.000000 0
5.500000 0.000000 0
5.600000 0.000000 0
5.700000 0.000000 0
5.800000 0.000000 0
5.900000 0.000000 0
6.000000 0.000000 0
6.100000 0.000000 0
6.200000 0.000000 0
6.300000 0.000000 0
6.400000 0.000000 0
6.500000 0.000000 0
6.600000 0.000000 0
6.700000 0.000000 0
6.800000 0.000000 0
6.900000 0.000000 0
7.000000 0.000000 0
7.100000 0.000000 0
7.200000 0.000000 0
7.300000 0.000000 0
7.400000 0.000000 0
7.500000 0.000000 0
7.600000 0.000000 0
7.700000 0.000000 0
7.800000 0.000000 0
7.900000 0.000000 0
8.000000 0.000000 0
8.100000 0.000000 0
8.200000 0.000000 0
8.300000 0.000000 0
8.400000 0.000000 0
8.500000 0.000000 0
8.600000 0.000000 0
8.700000 0.000000 0
8.800000 0.000000 0
8.900000 0.000000 0
9.000000 0.000000 0
9.100000 0.000000 0
9.200000 0.000000 0
9.300000 0.000000 0
9.400000 0.000000 0
9.500000 0.000000 0
9.600000 0.000000 0
9.700000 0.000000 0
9.800000 0.000000 0
9.900000 0.000000 0
10.000000 0.000000 0
0.000000 0.100000 0
0.100000 0.100000 0
0.200000 0.100000 0
0.300000 0.100000 0
0.400000 0.100000 0
0.500000 0.100000 0
0.600000 0.100000 0
0.700000 0.100000 0
0.800000 0.100000 0
0.900000 0.100000 0
1.000000 0.100000 0
1.100000 0.100000 0
1.200000 0.100000 0
1.300000 0.100000 0
1.400000 0.100000 0
1.500000 0.100000 0
1.600000 0.100000 0
1.700000 0.100000 0
1.800000 0.100000 0
1.900000 0.100000 0
2.000000 0.100000 0
2.100000 0.100000 0
2.200000 0.100000 0
2.300000 0.100000 0
2.400000 0.100000 0
2.500000 0.100000 0
2.600000 0.100000 0
2.700000 0.100000 0
2.800000 0.100000 0
2.900000 0.100000 0
3.000000 0.100000 0
3.100000 0.100000 0
3.200000 0.100000 0
3.300000 0.100000 0
3.400000 0.100000 0
3.500000 0.100000 0
3.600000 0.100000 0
3.700000 0.100000 0
3.800000 0.100000 0
3.900000 0.100000 0
4.000000 0.100000 0
4.100000 0.100000 0
4.200000 0.100000 0
4.300000 0.100000 0
4.400000 0.100000 0
4.500000 0.100000 0
4.600000 0.100000 0
4.700000 0.100000 0
4.800000 0.100000 0
4.900000 0.100000 0
5.000000 0.100000 0
5.100000 0.100000 0
5.200000 0.100000 0
5.300000 0.100000 0
5.400000 0.100000 0
5.500000 0.100000 0
5.600000 0.100000 0
5.700000 0.100000 0
5.800000 0.100000 0
5.900000 0.100000 0
6.000000 0.100000 0
6.100000 0.100000 0
6.200000 0.100000 0
6.300000 0.100000 0
6.400000 0.100000 0
6.500000 0.100000 0
6.600000 0.100000 0
6.700000 0.100000 0
6.800000 0.100000 0
6.900000 0.100000 0
7.000000 0.100000 0
7.100000 0.100000 0
7.200000 0.100000 0
7.300000 0.100000 0
7.400000 0.100000 0
7.500000 0.100000 0
7.600000 0.100000 0
7.700000 0.100000 0
7.800000 0.100000 0
7.900000 0.100000 0
8.000000 0.100000 0
8.100000 0.100000 0
8.200000 0.100000 0
8.300000 0.100000 0
8.400000 0.100000 0
8.500000 0.100000 0
8.600000 0.100000 0
8.700000 0.100000 0
8.800000 0.100000 0
8.900000 0.100000 0
9.000000 0.100000 0
9.100000 0.100000 0
9.200000 0.100000 0
9.300000 0.100000 0
9.400000 0.100000 0
9.500000 0.100000 0
9.600000 0.100000 0
9.700000 0.100000 0
9.800000 0.100000 0
9.900000 0.100000 0
10.000000 0.100000 0
0.000000 0.200000 0
0.100000 0.200000 0
0.200000 0.200000 0
0.300000 0.200000 0
0.400000 0.200000 0
0.500000 0.200000 0
0.600000 0.200000 0
0.700000 0.200000 0
0.800000 0.200000 0
0.900000 0.200000 0
1.000000 0.200000 0
1.100000 0.200000 0
1.200000 0.200000 0
1.300000 0.200000 0
1.400000 0.200000 0
1.500000 0.200000 0
1.600000 0.200000 0
1.700000 0.200000 0
1.800000 0.200000 0
1.900000 0.200000 0
2.000000 0.200000 0
2.100000 0.200000 0
2.200000 0.200000 0
2.300000 0.200000 0
2.400000 0.200000 0
2.500000 0.200000 0
2.600000 0.200000 0
2.700000 0.200000 0
2.800000 0.200000 0
2.900000 0.200000 0
3.000000 0.200000 0
3.100000 0.200000 0
3.200000 0.200000 0
3.300000 0.200000 0
3.400000 0.200000 0
3.500000 0.200000 0
3.600000 0.200000 0
3.700000 0.200000 0
3.800000 0.200000 0
3.900000 0.200000 0
4.000000 0.200000 0
4.100000 0.200000 0
4.200000 0.200000 0
4.300000 0.200000 0
4.400000 0.200000 0
4.500000 0.200000 0
4.600000 0.200000 0
4.700000 0.200000 0
4.800000 0.200000 0
4.900000 0.200000 0
5.000000 0.200000 0
5.100000 0.200000 0
5.200000 0.200000 0
5.300000 0.200000 0
5.400000 0.200000 0
5.500000 0.200000 0
5.600000 0.200000 0
5.700000 0.200000 0
5.800000 0.200000 0
5.900000 0.200000 0
6.000000 0.200000 0
6.100000 0.200000 0
6.200000 0.200000 0
6.300000 0.200000 0
6.400000 0.200000 0
6.500000 0.200000 0
6.600000 0.200000 0
6.700000 0.200000 0
6.800000 0.200000 0
6.900000 0.200000 0
7.000000 0.200000 0
7.100000 0.200000 0
7.200000 0.200000 0
7.300000 0.200000 0
7.400000 0.200000 0
7.500000 0.200000 0
7.600000 0.200000 0
7.700000 0.200000 0
7.800000 0.200000 0
7.900000 0.200000 0
8.000000 0.200000 0
8.100000 0.200000 0
8.200000 0.200000 0
8.300000 0.200000 0
8.400000 0.200000 0
8.500000 0.200000 0
8.600000 0.200000 0
8.700000 0.200000 0
8.800000 0.200000 0
8.900000 0.200000 0
9.000000 0.200000 0
9.100000 0.200000 0
9.200000 0.200000 0
9.300000 0.200000 0
9.400000 0.200000 0
9.500000 0.200000 0
9.600000 0.200000 0
9.700000 0.200000 0
9.800000 0.200000 0
9.900000 0.200000 0
10.000000 0.200000 0
0.000000 0.300000 0
0.100000 0.300000 0
0.200000 0.300000 0
0.300000 0.300000 0
0.400000 0.300000 0
0.500000 0.300000 0
0.600000 0.300000 0
0.700000 0.300000 0
0.800000 0.300000 0
0.900000 0.300000 0
1.000000 0.300000 0
1.100000 0.300000 0
1.200000 0.300000 0
1.300000 0.300000 0
1.400000 0.300000 0
1.500000 0.300000 0
1.600000 0.300000 0
1.700000 0.300000 0
1.800000 0.300000 0
1.900000 0.300000 0
2.000000 0.300000 0
2.100000 0.300000 0
2.200000 0.300000 0
2.300000 0.300000 0
2.400000 0.300000 0
2.500000 0.300000 0
2.600000 0.300000 0
2.700000 0.300000 0
2.800000 0.300000 0
2.900000 0.300000 0
3.000000 0.300000 0
3.100000 0.300000 0
3.200000 0.300000 0
3.300000 0.300000 0
3.400000 0.300000 0
3.500000 0.300000 0
3.600000 0.300000 0
3.700000 0.300000 0
3.800000 0.300000 0
3.900000 0.300000 0
4.000000 0.300000 0
4.100000 0.300000 0
4.200000 0.300000 0
4.300000 0.300000 0
4.400000 0.300000 0
4.500000 0.300000 0
4.600000 0.300000 0
4.700000 0.300000 0
4.800000 0.300000 0
4.900000 0.300000 0
5.000000 0.300000 0
5.100000 0.300000 0
5.200000 0.300000 0
5.300000 0.300000 0
5.400000 0.300000 0
5.500000 0.300000 0
5.600000 0.300000 0
5.700000 0.300000 0
5.800000 0.300000 0
5.900000 0.300000 0
6.000000 0.300000 0
6.100000 0.300000 0
6.200000 0.300000 0
6.300000 0.300000 0
6.400000 0.300000 0
6.500000 0.300000 0
6.600000 0.300000 0
6.700000 0.300000 0
6.800000 0.300000 0
6.900000 0.300000 0
7.000000 0.300000 0
7.100000 0.300000 0
7.200000 0.300000 0
7.300000 0.300000 0
7.400000 0.300000 0
7.500000 0.300000 0
7.600000 0.300000 0
7.700000 0.300000 0
7.800000 0.300000 0
7.900000 0.300000 0
8.000000 0.300000 0
8.100000 0.300000 0
8.200000 0.300000 0
8.300000 0.300000 0
8.400000 0.300000 0
8.500000 0.300000 0
8.600000 0.300000 0
8.700000 0.300000 0
8.800000 0.300000 0
8.900000 0.300000 0
9.000000 0.300000 0
9.100000 0.300000 0
9.200000 0.300000 0
9.300000 0.300000 0
9.400000 0.300000 0
9.500000 0.300000 0
9.600000 0.300000 0
9.700000 0.300000 0
9.800000 0.300000 0
9.900000 0.300000 0
10.000000 0.300000 0
0.000000 0.400000 0
0.100000 0.400000 0
0.200000 0.400000 0
0.300000 0.400000 0
0.400000 0.400000 0
0.500000 0.400000 0
0.600000 0.400000 0
0.700000 0.400000 0
0.800000 0.400000 0
0.900000 0.400000 0
1.000000 0.400000 0
1.100000 0.400000 0
1.200000 0.400000 0
1.300000 0.400000 0
1.400000 0.400000 0
1.500000 0.400000 0
1.600000 0.400000 0
1.700000 0.400000 0
1.800000 0.400000 0
1.900000 0.400000 0
2.000000 0.400000 0
2.100000 0.400000 0
2.200000 0.400000 0
2.300000 0.400000 0
2.400000 0.400000 0
2.500000 0.400000 0
2.600000 0.400000 0
2.700000 0.400000 0
2.800000 0.400000 0
2.900000 0.400000 0
3.000000 0.400000 0
3.100000 0.400000 0
3.200000 0.400000 0
3.300000 0.400000 0
3.400000 0.400000 0
3.500000 0.400000 0
3.600000 0.400000 0
3.700000 0.400000 0
3.800000 0.400000 0
3.900000 0.400000 0
4.000000 0.400000 0
4.100000 0.400000 0
4.200000 0.400000 0
4.300000 0.400000 0
4.400000 0.400000 0
4.500000 0.400000 0
4.600000 0.400000 0
4.700000 0.400000 0
4.800000 0.400000 0
4.900000 0.400000 0
5.000000 0.400000 0
5.100000 0.400000 0
5.200000 0.400000 0
5.300000 0.400000 0
5.400000 0.400000 0
5.500000 0.400000 0
5.600000 0.400000 0
5.700000 0.400000 0
5.800000 0.400000 0
5.900000 0.400000 0
6.000000 0.400000 0
6.100000 0.400000 0
6.200000 0.400000 0
6.300000 0.400000 0
6.400000 0.400000 0
6.500000 0.400000 0
6.600000 0.400000 0
6.700000 0.400000 0
6.800000 0.400000 0
6.900000 0.400000 0
7.000000 0.400000 0
7.100000 0.400000 0
7.200000 0.400000 0
7.300000 0.400000 0
7.400000 0.400000 0
7.500000 0.400000 0
7.600000 0.400000 0
7.700000 0.400000 0
7.800000 0.400000 0
7.900000 0.400000 0
8.000000 0.400000 0
8.100000 0.400000 0
8.200000 0.400000 0
8.300000 0.400000 0
8.400000 0.400000 0
8.500000 0.400000 0
8.600000 0.400000 0
[...]
POINT_DATA 2121 

VECTORS velocity float
0.500000 0.000000 0
-0.000003 0.000000 0
-0.000012 0.000000 0
-0.000028 0.000000 0
-0.000047 0.000000 0
-0.000069 0.000000 0
-0.000088 0.000000 0
-0.000101 0.000000 0
-0.000102 0.000000 0
-0.000081 0.000000 0
-0.000032 0.000000 0
0.000052 0.000000 0
0.000175 0.000000 0
0.000336 0.000000 0
0.000526 0.000000 0
0.000724 0.000000 0
0.000905 0.000000 0
0.001042 0.000000 0
0.001104 0.000000 0
0.001068 0.000000 0
0.000915 0.000000 0
0.000637 0.000000 0
0.000235 0.000000 0
-0.000281 0.000000 0
-0.000890 0.000000 0
-0.001557 0.000000 0
-0.002233 0.000000 0
-0.002814 0.000000 0
-0.003174 0.000000 0
-0.003200 0.000000 0
-0.002832 0.000000 0
-0.002111 0.000000 0
-0.001165 0.000000 0
-0.000131 0.000000 0
0.000892 0.000000 0
0.001818 0.000000 0
0.002593 0.000000 0
0.003188 0.000000 0
0.003591 0.000000 0
0.003801 0.000000 0
0.003819 0.000000 0
0.003647 0.000000 0
0.003285 0.000000 0
0.002732 0.000000 0
0.001979 0.000000 0
0.001012 0.000000 0
-0.000175 0.000000 0
-0.001502 0.000000 0
-0.002840 0.000000 0
-0.004104 0.000000 0
-0.005189 0.000000 0
-0.005970 0.000000 0
-0.006315 0.000000 0
-0.006104 0.000000 0
-0.005272 0.000000 0
-0.003869 0.000000 0
-0.002101 0.000000 0
-0.000275 0.000000 0
0.001452 0.000000 0
0.002986 0.000000 0
0.004245 0.000000 0
0.005173 0.000000 0
0.005741 0.000000 0
0.005944 0.000000 0
0.005797 0.000000 0
0.005322 0.000000 0
0.004545 0.000000 0
0.003500 0.000000 0
0.002240 0.000000 0
0.000851 0.000000 0
-0.000506 0.000000 0
-0.001647 0.000000 0
-0.002577 0.000000 0
-0.003338 0.000000 0
-0.003970 0.000000 0
-0.004495 0.000000 0
-0.004908 0.000000 0
-0.005166 0.000000 0
-0.005187 0.000000 0
-0.004868 0.000000 0
-0.004122 0.000000 0
-0.002937 0.000000 0
-0.001425 0.000000 0
0.000217 0.000000 0
0.001880 0.000000 0
0.003477 0.000000 0
0.004895 0.000000 0
0.006013 0.000000 0
0.006710 0.000000 0
0.006880 0.000000 0
0.006474 0.000000 0
0.005529 0.000000 0
0.004196 0.000000 0
0.002702 0.000000 0
0.001302 0.000000 0
0.000241 0.000000 0
-0.000405 0.000000 0
-0.000751 0.000000 0
-0.000912 0.000000 0
-0.000989 0.000000 0
-0.001127 0.000000 0
1.000000 0.000004 0
1.002608 -0.004738 0
1.010735 -0.010319 0
1.024822 -0.016432 0
1.045348 -0.022872 0
1.072629 -0.029261 0
1.106513 -0.034929 0
1.145960 -0.038949 0
1.188745 -0.040356 0
1.231310 -0.038744 0
1.270333 -0.034576 0
1.303651 -0.028721 0
1.330184 -0.021964 0
1.349505 -0.014840 0
1.361523 -0.007704 0
1.366386 -0.000866 0
1.364510 0.005387 0
1.356605 0.010790 0
1.343675 0.015078 0
1.326991 0.018029 0
1.308031 0.019492 0
1.288383 0.019409 0
1.269646 0.017813 0
1.253329 0.014828 0
1.240766 0.010652 0
1.233059 0.005551 0
1.230997 -0.000065 0
1.234876 -0.005485 0
1.244189 -0.009760 0
1.257362 -0.011968 0
1.271825 -0.011527 0
1.284533 -0.008464 0
1.292760 -0.003435 0
1.294748 0.002681 0
1.289847 0.009103 0
1.278240 0.015191 0
1.260672 0.020488 0
1.238216 0.024719 0
1.212098 0.027746 0
1.183600 0.029514 0
1.154008 0.030008 0
1.124598 0.029228 0
1.096639 0.027174 0
1.071386 0.023825 0
1.050077 0.019128 0
1.033897 0.012992 0
1.023919 0.005424 0
1.021034 -0.003119 0
1.025897 -0.011868 0
1.038783 -0.020144 0
1.059411 -0.027286 0
1.086794 -0.032563 0
1.119208 -0.035232 0
1.154208 -0.034644 0
1.188689 -0.030448 0
1.219089 -0.022882 0
1.241903 -0.012990 0
1.254473 -0.002317 0
1.255774 0.007984 0
1.246457 0.017302 0
1.227893 0.025158 0
1.201886 0.031187 0
1.170504 0.035173 0
1.135926 0.037031 0
1.100329 0.036772 0
1.065795 0.034461 0
1.034243 0.030201 0
1.007335 0.024153 0
0.986337 0.016612 0
0.971979 0.008118 0
0.964392 -0.000339 0
0.963271 -0.007738 0
0.967961 -0.013750 0
0.977692 -0.018553 0
0.991772 -0.022387 0
1.009633 -0.025422 0
1.030808 -0.027678 0
1.054808 -0.028979 0
1.080921 -0.028940 0
1.107991 -0.027046 0
1.134290 -0.022850 0
1.157554 -0.016275 0
1.175225 -0.007866 0
1.184917 0.001423 0
1.185174 0.010832 0
1.175977 0.019833 0
1.158079 0.027827 0
1.132861 0.034140 0
1.102298 0.038078 0
1.068872 0.039026 0
1.035376 0.036626 0
1.004570 0.031012 0
0.978731 0.022935 0
0.959241 0.013667 0
0.946408 0.004722 0
0.939615 -0.002398 0
0.937733 -0.006923 0
0.939270 -0.009000 0
0.942543 -0.008922 0
0.945863 -0.005169 0
0.945705 -0.002108 0
1.000000 0.000007 0
1.002925 -0.010741 0
1.011502 -0.022218 0
1.026129 -0.034616 0
1.047506 -0.047810 0
1.076382 -0.061169 0
1.113157 -0.073335 0
1.157194 -0.082236 0
1.206247 -0.085355 0
1.254615 -0.081595 0
1.297694 -0.072348 0
1.333427 -0.059858 0
1.361359 -0.045861 0
1.381572 -0.031347 0
1.394164 -0.016888 0
1.399252 -0.002993 0
1.397244 0.009774 0
1.388829 0.020830 0
1.375042 0.029610 0
1.357244 0.035640 0
1.337036 0.038604 0
1.316139 0.038381 0
1.296270 0.035052 0
1.279029 0.028878 0
1.265816 0.020267 0
1.257818 0.009766 0
1.256036 -0.001819 0
1.261154 -0.013194 0
1.273024 -0.022488 0
1.290096 -0.027639 0
1.309332 -0.027174 0
1.326816 -0.020940 0
1.338927 -0.010219 0
1.343497 0.002909 0
1.340123 0.016503 0
1.329359 0.029169 0
1.312277 0.040018 0
1.290175 0.048568 0
1.264402 0.054610 0
1.236268 0.058084 0
1.207028 0.058995 0
1.177890 0.057363 0
1.150027 0.053207 0
1.124566 0.046557 0
1.102550 0.037485 0
1.084875 0.026154 0
1.072224 0.012858 0
1.065148 -0.001981 0
1.064361 -0.017752 0
1.070486 -0.033518 0
1.083725 -0.048014 0
1.103795 -0.059799 0
1.129999 -0.067417 0
1.161190 -0.069485 0
1.195497 -0.064884 0
1.230047 -0.053217 0
1.260990 -0.035388 0
1.284032 -0.013875 0
1.295777 0.008012 0
1.295624 0.027877 0
1.285023 0.044566 0
1.265900 0.057384 0
1.240421 0.065954 0
1.210816 0.070170 0
1.179240 0.070126 0
1.147668 0.066080 0
1.117782 0.058454 0
1.090868 0.047900 0
1.067728 0.035351 0
1.048681 0.021941 0
1.033724 0.008703 0
1.022937 -0.003572 0
1.016429 -0.014423 0
1.014075 -0.023812 0
1.015715 -0.031942 0
1.021326 -0.039035 0
1.031077 -0.045172 0
1.045224 -0.050110 0
1.063814 -0.053178 0
1.086397 -0.053362 0
1.111859 -0.049556 0
1.138386 -0.040927 0
1.163490 -0.027354 0
1.184155 -0.009939 0
1.197488 0.008951 0
1.201993 0.027105 0
1.198025 0.043127 0
1.186643 0.055792 0
1.169389 0.064000 0
1.148081 0.066933 0
1.124580 0.064313 0
1.100551 0.056656 0
1.077310 0.045339 0
1.055782 0.032333 0
1.036560 0.019636 0
1.020042 0.008683 0
1.006617 0.000354 0
0.996255 -0.004801 0
0.988474 -0.006584 0
0.982573 -0.003152 0
0.978254 -0.000012 0
1.000000 0.000011 0
1.002519 -0.016243 0
1.010258 -0.033524 0
1.023898 -0.052437 0
1.044636 -0.073126 0
1.074068 -0.094913 0
1.113813 -0.115744 0
1.164385 -0.132042 0
1.224638 -0.137780 0
1.282033 -0.130194 0
1.329549 -0.113391 0
1.366450 -0.092389 0
1.394121 -0.070113 0
1.413773 -0.047648 0
1.425723 -0.025386 0
1.429775 -0.003948 0
1.426138 0.015809 0
1.415360 0.032991 0
1.398526 0.046662 0
1.377174 0.056033 0
1.353137 0.060597 0
1.328385 0.060175 0
1.304862 0.054923 0
1.284339 0.045281 0
1.268298 0.031861 0
1.257965 0.015331 0
1.254555 -0.003402 0
1.259433 -0.022474 0
1.273144 -0.038703 0
1.294366 -0.048278 0
1.319640 -0.048249 0
1.343905 -0.038062 0
1.361826 -0.020117 0
1.369884 0.001483 0
1.367798 0.023238 0
1.356922 0.043034 0
1.339011 0.059669 0
1.315819 0.072591 0
1.288919 0.081651 0
1.259673 0.086885 0
1.229275 0.088383 0
1.198813 0.086227 0
1.169307 0.080497 0
1.141728 0.071301 0
1.116970 0.058818 0
1.095803 0.043317 0
1.078806 0.025149 0
1.066324 0.004743 0
1.058517 -0.017207 0
1.055630 -0.039509 0
1.057997 -0.060596 0
1.066120 -0.078838 0
1.080807 -0.092629 0
1.102791 -0.100143 0
1.131912 -0.099306 0
1.166495 -0.088377 0
1.203186 -0.066978 0
1.237226 -0.037106 0
1.263226 -0.003610 0
1.277045 0.028053 0
1.278794 0.054879 0
1.270337 0.075787 0
1.253817 0.090255 0
1.231439 0.098210 0
1.205302 0.099918 0
1.177277 0.095917 0
1.148914 0.086998 0
1.121410 0.074206 0
1.095632 0.058797 0
1.072185 0.042121 0
1.051434 0.025405 0
1.033425 0.009556 0
1.018024 -0.004889 0
1.005113 -0.017839 0
0.994958 -0.029637 0
0.988437 -0.040782 0
0.986772 -0.051574 0
0.991138 -0.061714 0
1.002126 -0.070111 0
1.019460 -0.075089 0
1.042067 -0.074837 0
1.068307 -0.067903 0
1.096171 -0.053633 0
1.123349 -0.032572 0
1.147101 -0.007003 0
1.164473 0.019299 0
1.174170 0.043179 0
1.176477 0.062778 0
1.172165 0.076642 0
1.162267 0.083835 0
1.147876 0.084157 0
1.130036 0.078283 0
1.109757 0.067704 0
1.088082 0.054416 0
1.066104 0.040462 0
1.044816 0.027545 0
1.024880 0.016863 0
1.006768 0.009142 0
0.990940 0.004759 0
0.977929 0.005049 0
0.970025 0.006107 0
1.000000 0.000014 0
1.001981 -0.021001 0
1.008229 -0.043597 0
1.019710 -0.068996 0
1.038225 -0.097981 0
1.066600 -0.130347 0
1.108672 -0.163655 0
1.167852 -0.193064 0
1.248728 -0.203005 0
1.317401 -0.186508 0
1.365636 -0.156768 0
1.398676 -0.124433 0
1.422120 -0.093186 0
1.439111 -0.062952 0
1.450024 -0.032892 0
1.453405 -0.003409 0
1.448313 0.024188 0
1.434902 0.048441 0
1.414311 0.067795 0
1.388341 0.081027 0
1.359160 0.087392 0
1.329101 0.086655 0
1.300467 0.079096 0
1.275279 0.065441 0
1.255056 0.046640 0
1.240777 0.023508 0
1.233166 -0.003289 0
1.233722 -0.031784 0
1.244394 -0.057422 0
1.265119 -0.074136 0
1.293638 -0.076716 0
1.325439 -0.063128 0
1.353744 -0.036201 0
1.371276 -0.003065 0
1.374659 0.029463 0
1.366286 0.057953 0
1.349130 0.081118 0
1.325760 0.098657 0
1.298187 0.110753 0
1.267943 0.117725 0
1.236244 0.119853 0
1.204125 0.117329 0
1.172542 0.110290 0
1.142419 0.098893 0
1.114626 0.083409 0
1.089833 0.064317 0
1.068223 0.042336 0
1.049216 0.018306 0
1.031631 -0.007059 0
1.014707 -0.032999 0
0.999747 -0.058506 0
0.989826 -0.082611 0
0.988534 -0.104090 0
0.998516 -0.120592 0
1.020307 -0.128589 0
1.052374 -0.124493 0
1.091644 -0.106121 0
1.133853 -0.073917 0
1.173674 -0.031809 0
1.204915 0.012307 0
1.223369 0.051272 0
1.229870 0.082359 0
1.226249 0.104850 0
1.214548 0.118682 0
1.196782 0.124286 0
1.174800 0.122466 0
1.150203 0.114319 0
1.124314 0.101180 0
1.098167 0.084575 0
1.072473 0.066137 0
1.047531 0.047462 0
1.023240 0.029837 0
0.999390 0.013890 0
0.976307 -0.000745 0
0.955246 -0.015265 0
0.938424 -0.030848 0
0.928406 -0.047872 0
0.926829 -0.065463 0
0.933876 -0.081498 0
0.948595 -0.093301 0
0.969453 -0.098401 0
0.994748 -0.095029 0
1.022779 -0.082394 0
1.051855 -0.060868 0
1.080153 -0.032173 0
1.105290 0.000037 0
1.124533 0.031124 0
1.136988 0.057798 0
1.142679 0.078210 0
1.141968 0.091221 0
1.135405 0.096542 0
1.123669 0.094773 0
1.107581 0.087292 0
1.088109 0.075984 0
1.066301 0.062899 0
1.043168 0.049905 0
1.019634 0.038400 0
0.996671 0.029137 0
0.975541 0.022253 0
0.957922 0.017759 0
0.947601 0.015321 0
1.000000 0.000018 0
1.001145 -0.024474 0
1.004895 -0.051253 0
1.012316 -0.082433 0
1.025615 -0.120017 0
1.048877 -0.165363 0
1.089150 -0.216998 0
1.156108 -0.272100 0
1.272628 -0.287331 0
1.345358 -0.247105 0
1.378761 -0.194668 0
1.395011 -0.148875 0
1.405564 -0.110550 0
1.415541 -0.075554 0
1.425173 -0.039682 0
1.430154 -0.002238 0
1.425771 0.034311 0
1.411573 0.066992 0
1.388716 0.093222 0
1.359206 0.111184 0
1.325458 0.119835 0
1.290124 0.118867 0
1.255917 0.108745 0
1.225164 0.090691 0
1.199239 0.066363 0
1.178373 0.037219 0
1.161988 0.003652 0
1.149569 -0.033704 0
1.144781 -0.070102 0
1.151706 -0.097524 0
1.172470 -0.108572 0
1.206109 -0.098170 0
1.246920 -0.065956 0
1.284587 -0.019434 0
1.307715 0.028225 0
1.313795 0.068561 0
1.307436 0.100193 0
1.292272 0.123532 0
1.270852 0.139465 0
1.244993 0.148826 0
1.216074 0.152199 0
1.185247 0.149927 0
1.153564 0.142201 0
1.122032 0.129216 0
1.091544 0.111403 0
1.062533 0.089718 0
1.034321 0.065765 0
1.004863 0.041334 0
0.972057 0.017301 0
0.936314 -0.007627 0
0.902095 -0.035716 0
0.876957 -0.067626 0
0.866655 -0.101320 0
0.872212 -0.131918 0
0.891809 -0.153165 0
0.922747 -0.159716 0
0.962145 -0.148459 0
1.006895 -0.119138 0
1.053384 -0.074675 0
1.097018 -0.021645 0
1.131505 0.029923 0
1.153801 0.072904 0
1.164806 0.105574 0
1.165987 0.127675 0
1.159014 0.139663 0
1.145554 0.142493 0
1.127135 0.137483 0
1.105048 0.126240 0
1.080224 0.110637 0
1.053117 0.092756 0
1.023756 0.074636 0
0.992206 0.057697 0
0.959380 0.042045 0
0.927613 0.026306 0
0.900238 0.008247 0
0.880374 -0.013941 0
0.869935 -0.039978 0
0.869143 -0.067183 0
0.876820 -0.091876 0
0.891301 -0.110665 0
0.911002 -0.120990 0
0.934574 -0.121229 0
0.960826 -0.110739 0
0.988626 -0.089946 0
1.016790 -0.060438 0
1.043932 -0.025082 0
1.067796 0.011481 0
1.086186 0.044630 0
1.098411 0.071659 0
1.104244 0.091107 0
1.103771 0.102454 0
1.097312 0.106103 0
1.085387 0.103260 0
1.068683 0.095691 0
1.048013 0.085398 0
1.024338 0.074208 0
0.998874 0.063355 0
0.973259 0.053230 0
0.949609 0.043504 0
0.930332 0.032984 0
0.919156 0.026186 0
1.000000 0.000022 0
0.999958 -0.025898 0
1.000029 -0.054769 0
1.000966 -0.089717 0
1.004622 -0.134543 0
1.015264 -0.193883 0
1.042527 -0.270888 0
1.106021 -0.376545 0
1.270265 -0.392258 0
1.316079 -0.292644 0
1.301254 -0.206423 0
1.281662 -0.151239 0
1.267546 -0.113719 0
1.263599 -0.082562 0
1.270975 -0.047507 0
1.283456 -0.004008 0
1.286937 0.042768 0
1.278629 0.085495 0
1.260034 0.120160 0
1.232951 0.144285 0
1.199389 0.156474 0
1.161915 0.156195 0
1.123609 0.144056 0
1.087061 0.122117 0
1.052527 0.093430 0
1.017616 0.060758 0
0.980576 0.025514 0
0.943223 -0.014578 0
0.911745 -0.059560 0
0.898906 -0.101828 0
0.910985 -0.131122 0
0.946385 -0.137580 0
0.999363 -0.114681 0
1.060978 -0.063863 0
1.118401 0.000252 0
1.158051 0.058230 0
1.179082 0.102639 0
1.186414 0.135238 0
1.183172 0.158030 0
1.171503 0.172502 0
1.153094 0.179597 0
1.129384 0.179837 0
1.101589 0.173504 0
1.070533 0.160912 0
1.036205 0.142906 0
0.997376 0.121538 0
0.952298 0.100005 0
0.901134 0.080569 0
0.848342 0.061488 0
0.801953 0.036962 0
0.769271 0.000850 0
0.753644 -0.047172 0
0.753825 -0.099346 0
0.766345 -0.145747 0
0.788290 -0.179127 0
0.817970 -0.194830 0
0.854293 -0.190271 0
0.895971 -0.165159 0
0.941095 -0.121934 0
0.986994 -0.065816 0
1.029617 -0.005514 0
1.063112 0.049056 0
1.085927 0.092662 0
1.098546 0.124471 0
1.101935 0.144717 0
1.097254 0.154343 0
1.085635 0.154822 0
1.067979 0.148089 0
1.044797 0.136505 0
1.016266 0.122604 0
0.982721 0.108372 0
0.945566 0.094213 0
0.907924 0.078482 0
0.874231 0.058397 0
0.848710 0.031975 0
0.833621 -0.000545 0
0.828598 -0.036641 0
0.831751 -0.072347 0
0.841007 -0.103656 0
0.854801 -0.127483 0
0.872143 -0.141674 0
0.892399 -0.144854 0
0.915035 -0.136447 0
0.939432 -0.116833 0
0.964810 -0.087480 0
0.990200 -0.050971 0
1.014315 -0.011133 0
1.034884 0.027180 0
1.050406 0.060147 0
1.060173 0.085856 0
1.063847 0.103470 0
1.061367 0.113152 0
1.052909 0.115915 0
1.038862 0.113351 0
1.019887 0.107237 0
0.997047 0.099038 0
0.971948 0.089472 0
0.946757 0.078395 0
0.923972 0.065173 0
0.905989 0.048205 0
0.895484 0.036990 0
1.000000 0.000025 0
0.998523 -0.024504 0
0.994027 -0.052262 0
0.986387 -0.087028 0
0.975748 -0.134317 0
0.963603 -0.203268 0
0.956241 -0.307757 0
0.975584 -0.499840 0
1.133406 -0.497392 0
1.115461 -0.278096 0
1.006491 -0.160253 0
0.943342 -0.115169 0
0.900130 -0.092488 0
0.879382 -0.078985 0
0.885425 -0.059541 0
0.913729 -0.018202 0
0.944440 0.039137 0
0.959976 0.093894 0
0.962565 0.138899 0
0.951978 0.171828 0
0.927734 0.190871 0
0.889895 0.194646 0
0.839164 0.183597 0
0.777475 0.161772 0
0.709673 0.135807 0
0.644147 0.109169 0
0.590996 0.078044 0
0.559185 0.035126 0
0.551302 -0.025787 0
0.564654 -0.096767 0
0.596447 -0.156053 0
0.644299 -0.186551 0
0.706213 -0.180551 0
0.779602 -0.138474 0
0.859304 -0.068851 0
0.933049 0.007877 0
0.987875 0.071828 0
1.023897 0.119439 0
1.044862 0.154373 0
1.052949 0.178902 0
1.049842 0.194318 0
1.036918 0.201431 0
1.015040 0.201050 0
0.984169 0.194599 0
0.943251 0.184558 0
0.891361 0.173623 0
0.830568 0.162006 0
0.768456 0.145289 0
0.716495 0.116481 0
0.684086 0.071443 0
0.673564 0.012591 0
0.679355 -0.052181 0
0.693342 -0.114023 0
0.711012 -0.166384 0
0.731277 -0.204792 0
0.754918 -0.225720 0
0.783203 -0.226462 0
0.816786 -0.205942 0
0.855110 -0.165700 0
0.896449 -0.110170 0
0.938250 -0.046198 0
0.976117 0.016592 0
1.005630 0.070138 0
1.025932 0.111665 0
1.037049 0.140953 0
1.039393 0.158791 0
1.033445 0.166756 0
1.019557 0.167076 0
0.997970 0.162349 0
0.969239 0.154831 0
0.935023 0.145335 0
0.898672 0.132493 0
0.864828 0.113379 0
0.837903 0.085520 0
0.820460 0.048857 0
0.812656 0.006171 0
0.812794 -0.038108 0
0.818385 -0.079593 0
0.827473 -0.114927 0
0.838952 -0.141801 0
0.852404 -0.158588 0
0.867823 -0.164122 0
0.885293 -0.157774 0
0.904715 -0.139723 0
0.925674 -0.111209 0
0.947439 -0.074591 0
0.969022 -0.033208 0
0.988920 0.008534 0
1.005165 0.046363 0
1.016651 0.077660 0
1.022680 0.101253 0
1.022872 0.117034 0
1.017122 0.125758 0
1.005657 0.128705 0
0.989146 0.127205 0
0.968841 0.122138 0
0.946604 0.113636 0
0.924710 0.101198 0
0.905440 0.084263 0
0.890627 0.061463 0
0.881818 0.046454 0
1.000000 0.000027 0
0.997136 -0.019926 0
0.988145 -0.042634 0
0.971681 -0.071439 0
0.945084 -0.111760 0
0.903578 -0.174377 0
0.838450 -0.282871 0
0.734512 -0.553711 0
0.549197 -0.532137 0
-0.000289 -0.165731 0
0.392444 -0.034306 0
0.316110 -0.044880 0
0.303100 -0.049759 0
0.324778 -0.067859 0
0.355494 -0.081855 0
0.402116 -0.063024 0
0.462690 -0.003480 0
0.514226 0.067369 0
0.547346 0.128158 0
0.560049 0.179115 0
0.549161 0.218555 0
0.513487 0.244765 0
0.455861 0.256476 0
0.384529 0.251607 0
0.314145 0.226756 0
0.262671 0.179434 0
0.243301 0.110475 0
0.258493 0.025114 0
0.297946 -0.065030 0
0.344592 -0.146975 0
0.391280 -0.210769 0
0.439813 -0.247349 0
0.494844 -0.249986 0
0.559932 -0.216956 0
0.635371 -0.153198 0
0.717244 -0.070343 0
0.792737 0.011789 0
0.850425 0.078248 0
0.890595 0.128976 0
0.915107 0.167520 0
0.925039 0.195625 0
0.921076 0.214637 0
0.903391 0.226252 0
0.871848 0.232700 0
0.827230 0.235714 0
0.773553 0.234220 0
0.719515 0.222909 0
0.676209 0.194640 0
0.651628 0.145857 0
0.646800 0.079892 0
0.656753 0.005579 0
0.673602 -0.066952 0
0.691143 -0.131004 0
0.706696 -0.183684 0
0.720255 -0.223035 0
0.733663 -0.246758 0
0.749693 -0.252140 0
0.770845 -0.237067 0
0.798172 -0.201600 0
0.830854 -0.148959 0
0.866660 -0.085184 0
0.902584 -0.018327 0
0.933817 0.042845 0
0.957648 0.093050 0
0.973142 0.131254 0
0.979933 0.157945 0
0.977883 0.174656 0
0.967027 0.183563 0
0.947852 0.186821 0
0.921895 0.185550 0
0.892228 0.178938 0
0.863204 0.164408 0
0.839179 0.139251 0
0.822941 0.102764 0
0.814990 0.057221 0
0.814051 0.007121 0
0.818060 -0.042370 0
0.824874 -0.087028 0
0.832954 -0.124224 0
0.841503 -0.152414 0
0.850417 -0.170546 0
0.860120 -0.177745 0
0.871272 -0.173343 0
0.884389 -0.157218 0
0.899557 -0.130208 0
0.916344 -0.094324 0
0.933909 -0.052620 0
0.951107 -0.008970 0
0.966166 0.032410 0
0.977651 0.068333 0
0.984609 0.097240 0
0.986438 0.118702 0
0.982885 0.133120 0
0.974138 0.141318 0
0.960939 0.144043 0
0.944639 0.141569 0
0.927070 0.133592 0
0.910217 0.119548 0
0.895796 0.099245 0
0.884939 0.071816 0
0.878352 0.053907 0
1.000000 0.000028 0
0.996193 -0.012650 0
0.984143 -0.026808 0
0.961652 -0.043967 0
0.924096 -0.066215 0
0.862220 -0.096635 0
0.756301 -0.138692 0
0.563102 -0.210589 0
0.074016 0.000460 0
-0.528387 0.129640 0
0.000000 0.000030 0
-0.034498 -0.037075 0
-0.056033 -0.101158 0
-0.031691 -0.131379 0
-0.023315 -0.136879 0
-0.005551 -0.125398 0
0.040299 -0.072973 0
0.108104 0.009237 0
0.165308 0.093075 0
0.198283 0.170012 0
0.204016 0.237432 0
0.185960 0.287945 0
0.155998 0.312555 0
0.128154 0.303487 0
0.116939 0.257664 0
0.130929 0.180012 0
0.169243 0.082220 0
0.220275 -0.019520 0
0.268508 -0.111887 0
0.308214 -0.190104 0
0.339267 -0.251277 0
0.365914 -0.290117 0
0.395333 -0.300672 0
0.434720 -0.279004 0
0.488055 -0.226165 0
0.554291 -0.149491 0
0.627352 -0.061356 0
0.693750 0.021579 0
0.744048 0.089690 0
0.777913 0.144456 0
0.795619 0.188347 0
0.797310 0.223077 0
0.783415 0.250277 0
0.755687 0.270759 0
0.718754 0.282852 0
0.680905 0.281337 0
0.652143 0.259348 0
0.639728 0.213174 0
0.644794 0.145889 0
0.662991 0.066317 0
0.687462 -0.014213 0
0.710924 -0.086573 0
0.729673 -0.147118 0
0.742197 -0.195498 0
0.748700 -0.231761 0
0.751125 -0.255161 0
0.752969 -0.263645 0
0.758381 -0.254423 0
0.770590 -0.225711 0
0.790537 -0.178660 0
0.816713 -0.117931 0
0.846115 -0.050567 0
0.874789 0.015072 0
0.898512 0.072339 0
0.915352 0.118665 0