# vtk DataFile Version 2.0
generated by CFD-lab course output (written by Tobias Neckel) 
ASCII

DATASET STRUCTURED_GRID
DIMENSIONS  101 21 1 
POINTS 2121 float

0.000000 0.000000 0
0.100000 0.000000 0
0.200000 0.000000 0
0.300000 0.000000 0
0.400000 0.000000 0
0.500000 0.000000 0
0.600000 0.000000 0
0.700000 0.000000 0
0.800000 0.000000 0
0.900000 0.000000 0
1.000000 0.000000 0
1.100000 0.000000 0
1.200000 0.000000 0
1.300000 0.000000 0
1.400000 0.000000 0
1.500000 0.000000 0
1.600000 0.000000 0
1.700000 0.000000 0
1.800000 0.000000 0
1.900000 0.000000 0
2.000000 0.000000 0
2.100000 0.000000 0
2.200000 0.000000 0
2.300000 0.000000 0
2.400000 0.000000 0
2.500000 0.000000 0
2.600000 0.000000 0
2.700000 0.000000 0
2.800000 0.000000 0
2.900000 0.000000 0
3.000000 0.000000 0
3.100000 0.000000 0
3.200000 0.000000 0
3.300000 0.000000 0
3.400000 0.000000 0
3.500000 0.000000 0
3.600000 0.000000 0
3.700000 0.000000 0
3.800000 0.000000 0
3.900000 0.000000 0
4.000000 0.000000 0
4.100000 0.000000 0
4.200000 0.000000 0
4.300000 0.000000 0
4.400000 0.000000 0
4.500000 0.000000 0
4.600000 0.000000 0
4.700000 0.000000 0
4.800000 0.000000 0
4.900000 0.000000 0
5.000000 0.000000 0
5.100000 0.000000 0
5.200000 0.000000 0
5.300000 0.000000 0
5.400000 0.000000 0
5.500000 0.000000 0
5.600000 0.000000 0
5.700000 0.000000 0
5.800000 0.000000 0
5.900000 0.000000 0
6.000000 0.000000 0
6.100000 0.000000 0
6.200000 0.000000 0
6.300000 0.000000 0
6.400000 0.000000 0
6.500000 0.000000 0
6.600000 0.000000 0
6.700000 0.000000 0
6.800000 0.000000 0
6.900000 0.000000 0
7.000000 0.000000 0
7.100000 0.000000 0
7.200000 0.000000 0
7.300000 0.000000 0
7.400000 0.000000 0
7.500000 0.000000 0
7.600000 0.000000 0
7.700000 0.000000 0
7.800000 0.000000 0
7.900000 0.000000 0
8.000000 0.000000 0
8.100000 0.000000 0
8.200000 0.000000 0
8.300000 0.000000 0
8.400000 0.000000 0
8.500000 0.000000 0
8.600000 0.000000 0
8.700000 0.000000 0
8.800000 0.000000 0
8.900000 0.000000 0
9.000000 0.000000 0
9.100000 0.000000 0
9.200000 0.000000 0
9.300000 0.000000 0
9.400000 0.000000 0
9.500000 0.000000 0
9.600000 0.000000 0
9.700000 0.000000 0
9.800000 0.000000 0
9.900000 0.000000 0
10.000000 0.000000 0
0.000000 0.100000 0
0.100000 0.100000 0
0.200000 0.100000 0
0.300000 0.100000 0
0.400000 0.100000 0
0.500000 0.100000 0
0.600000 0.100000 0
0.700000 0.100000 0
0.800000 0.100000 0
0.900000 0.100000 0
1.000000 0.100000 0
1.100000 0.100000 0
1.200000 0.100000 0
1.300000 0.100000 0
1.400000 0.100000 0
1.500000 0.100000 0
1.600000 0.100000 0
1.700000 0.100000 0
1.800000 0.100000 0
1.900000 0.100000 0
2.000000 0.100000 0
2.100000 0.100000 0
2.200000 0.100000 0
2.300000 0.100000 0
2.400000 0.100000 0
2.500000 0.100000 0
2.600000 0.100000 0
2.700000 0.100000 0
2.800000 0.100000 0
2.900000 0.100000 0
3.000000 0.100000 0
3.100000 0.100000 0
3.200000 0.100000 0
3.300000 0.100000 0
3.400000 0.100000 0
3.500000 0.100000 0
3.600000 0.100000 0
3.700000 0.100000 0
3.800000 0.100000 0
3.900000 0.100000 0
4.000000 0.100000 0
4.100000 0.100000 0
4.200000 0.100000 0
4.300000 0.100000 0
4.400000 0.100000 0
4.500000 0.100000 0
4.600000 0.100000 0
4.700000 0.100000 0
4.800000 0.100000 0
4.900000 0.100000 0
5.000000 0.100000 0
5.100000 0.100000 0
5.200000 0.100000 0
5.300000 0.100000 0
5.400000 0.100000 0
5.500000 0.100000 0
5.600000 0.100000 0
5.700000 0.100000 0
5.800000 0.100000 0
5.900000 0.100000 0
6.000000 0.100000 0
6.100000 0.100000 0
6.200000 0.100000 0
6.300000 0.100000 0
6.400000 0.100000 0
6.500000 0.100000 0
6.600000 0.100000 0
6.700000 0.100000 0
6.800000 0.100000 0
6.900000 0.100000 0
7.000000 0.100000 0
7.100000 0.100000 0
7.200000 0.100000 0
7.300000 0.100000 0
7.400000 0.100000 0
7.500000 0.100000 0
7.600000 0.100000 0
7.700000 0.100000 0
7.800000 0.100000 0
7.900000 0.100000 0
8.000000 0.100000 0
8.100000 0.100000 0
8.200000 0.100000 0
8.300000 0.100000 0
8.400000 0.100000 0
8.500000 0.100000 0
8.600000 0.100000 0
8.700000 0.100000 0
8.800000 0.100000 0
8.900000 0.100000 0
9.000000 0.100000 0
9.100000 0.100000 0
9.200000 0.100000 0
9.300000 0.100000 0
9.400000 0.100000 0
9.500000 0.100000 0
9.600000 0.100000 0
9.700000 0.100000 0
9.800000 0.100000 0
9.900000 0.100000 0
10.000000 0.100000 0
0.000000 0.200000 0
0.100000 0.200000 0
0.200000 0.200000 0
0.300000 0.200000 0
0.400000 0.200000 0
0.500000 0.200000 0
0.600000 0.200000 0
0.700000 0.200000 0
0.800000 0.200000 0
0.900000 0.200000 0
1.000000 0.200000 0
1.100000 0.200000 0
1.200000 0.200000 0
1.300000 0.200000 0
1.400000 0.200000 0
1.500000 0.200000 0
1.600000 0.200000 0
1.700000 0.200000 0
1.800000 0.200000 0
1.900000 0.200000 0
2.000000 0.200000 0
2.100000 0.200000 0
2.200000 0.200000 0
2.300000 0.200000 0
2.400000 0.200000 0
2.500000 0.200000 0
2.600000 0.200000 0
2.700000 0.200000 0
2.800000 0.200000 0
2.900000 0.200000 0
3.000000 0.200000 0
3.100000 0.200000 0
3.200000 0.200000 0
3.300000 0.200000 0
3.400000 0.200000 0
3.500000 0.200000 0
3.600000 0.200000 0
3.700000 0.200000 0
3.800000 0.200000 0
3.900000 0.200000 0
4.000000 0.200000 0
4.100000 0.200000 0
4.200000 0.200000 0
4.300000 0.200000 0
4.400000 0.200000 0
4.500000 0.200000 0
4.600000 0.200000 0
4.700000 0.200000 0
4.800000 0.200000 0
4.900000 0.200000 0
5.000000 0.200000 0
5.100000 0.200000 0
5.200000 0.200000 0
5.300000 0.200000 0
5.400000 0.200000 0
5.500000 0.200000 0
5.600000 0.200000 0
5.700000 0.200000 0
5.800000 0.200000 0
5.900000 0.200000 0
6.000000 0.200000 0
6.100000 0.200000 0
6.200000 0.200000 0
6.300000 0.200000 0
6.400000 0.200000 0
6.500000 0.200000 0
6.600000 0.200000 0
6.700000 0.200000 0
6.800000 0.200000 0
6.900000 0.200000 0
7.000000 0.200000 0
7.100000 0.200000 0
7.200000 0.200000 0
7.300000 0.200000 0
7.400000 0.200000 0
7.500000 0.200000 0
7.600000 0.200000 0
7.700000 0.200000 0
7.800000 0.200000 0
7.900000 0.200000 0
8.000000 0.200000 0
8.100000 0.200000 0
8.200000 0.200000 0
8.300000 0.200000 0
8.400000 0.200000 0
8.500000 0.200000 0
8.600000 0.200000 0
8.700000 0.200000 0
8.800000 0.200000 0
8.900000 0.200000 0
9.000000 0.200000 0
9.100000 0.200000 0
9.200000 0.200000 0
9.300000 0.200000 0
9.400000 0.200000 0
9.500000 0.200000 0
9.600000 0.200000 0
9.700000 0.200000 0
9.800000 0.200000 0
9.900000 0.200000 0
10.000000 0.200000 0
0.000000 0.300000 0
0.100000 0.300000 0
0.200000 0.300000 0
0.300000 0.300000 0
0.400000 0.300000 0
0.500000 0.300000 0
0.600000 0.300000 0
0.700000 0.300000 0
0.800000 0.300000 0
0.900000 0.300000 0
1.000000 0.300000 0
1.100000 0.300000 0
1.200000 0.300000 0
1.300000 0.300000 0
1.400000 0.300000 0
1.500000 0.300000 0
1.600000 0.300000 0
1.700000 0.300000 0
1.800000 0.300000 0
1.900000 0.300000 0
2.000000 0.300000 0
2.100000 0.300000 0
2.200000 0.300000 0
2.300000 0.300000 0
2.400000 0.300000 0
2.500000 0.300000 0
2.600000 0.300000 0
2.700000 0.300000 0
2.800000 0.300000 0
2.900000 0.300000 0
3.000000 0.300000 0
3.100000 0.300000 0
3.200000 0.300000 0
3.300000 0.300000 0
3.400000 0.300000 0
3.500000 0.300000 0
3.600000 0.300000 0
3.700000 0.300000 0
3.800000 0.300000 0
3.900000 0.300000 0
4.000000 0.300000 0
4.100000 0.300000 0
4.200000 0.300000 0
4.300000 0.300000 0
4.400000 0.300000 0
4.500000 0.300000 0
4.600000 0.300000 0
4.700000 0.300000 0
4.800000 0.300000 0
4.900000 0.300000 0
5.000000 0.300000 0
5.100000 0.300000 0
5.200000 0.300000 0
5.300000 0.300000 0
5.400000 0.300000 0
5.500000 0.300000 0
5.600000 0.300000 0
5.700000 0.300000 0
5.800000 0.300000 0
5.900000 0.300000 0
6.000000 0.300000 0
6.100000 0.300000 0
6.200000 0.300000 0
6.300000 0.300000 0
6.400000 0.300000 0
6.500000 0.300000 0
6.600000 0.300000 0
6.700000 0.300000 0
6.800000 0.300000 0
6.900000 0.300000 0
7.000000 0.300000 0
7.100000 0.300000 0
7.200000 0.300000 0
7.300000 0.300000 0
7.400000 0.300000 0
7.500000 0.300000 0
7.600000 0.300000 0
7.700000 0.300000 0
7.800000 0.300000 0
7.900000 0.300000 0
8.000000 0.300000 0
8.100000 0.300000 0
8.200000 0.300000 0
8.300000 0.300000 0
8.400000 0.300000 0
8.500000 0.300000 0
8.600000 0.300000 0
8.700000 0.300000 0
8.800000 0.300000 0
8.900000 0.300000 0
9.000000 0.300000 0
9.100000 0.300000 0
9.200000 0.300000 0
9.300000 0.300000 0
9.400000 0.300000 0
9.500000 0.300000 0
9.600000 0.300000 0
9.700000 0.300000 0
9.800000 0.300000 0
9.900000 0.300000 0
10.000000 0.300000 0
0.000000 0.400000 0
0.100000 0.400000 0
0.200000 0.400000 0
0.300000 0.400000 0
0.400000 0.400000 0
0.500000 0.400000 0
0.600000 0.400000 0
0.700000 0.400000 0
0.800000 0.400000 0
0.900000 0.400000 0
1.000000 0.400000 0
1.100000 0.400000 0
1.200000 0.400000 0
1.300000 0.400000 0
1.400000 0.400000 0
1.500000 0.400000 0
1.600000 0.400000 0
1.700000 0.400000 0
1.800000 0.400000 0
1.900000 0.400000 0
2.000000 0.400000 0
2.100000 0.400000 0
2.200000 0.400000 0
2.300000 0.400000 0
2.400000 0.400000 0
2.500000 0.400000 0
2.600000 0.400000 0
2.700000 0.400000 0
2.800000 0.400000 0
2.900000 0.400000 0
3.000000 0.400000 0
3.100000 0.400000 0
3.200000 0.400000 0
3.300000 0.400000 0
3.400000 0.400000 0
3.500000 0.400000 0
3.600000 0.400000 0
3.700000 0.400000 0
3.800000 0.400000 0
3.900000 0.400000 0
4.000000 0.400000 0
4.100000 0.400000 0
4.200000 0.400000 0
4.300000 0.400000 0
4.400000 0.400000 0
4.500000 0.400000 0
4.600000 0.400000 0
4.700000 0.400000 0
4.800000 0.400000 0
4.900000 0.400000 0
5.000000 0.400000 0
5.100000 0.400000 0
5.200000 0.400000 0
5.300000 0.400000 0
5.400000 0.400000 0
5.500000 0.400000 0
5.600000 0.400000 0
5.700000 0.400000 0
5.800000 0.400000 0
5.900000 0.400000 0
6.000000 0.400000 0
6.100000 0.400000 0
6.200000 0.400000 0
6.300000 0.400000 0
6.400000 0.400000 0
6.500000 0.400000 0
6.600000 0.400000 0
6.700000 0.400000 0
6.800000 0.400000 0
6.900000 0.400000 0
7.000000 0.400000 0
7.100000 0.400000 0
7.200000 0.400000 0
7.300000 0.400000 0
7.400000 0.400000 0
7.500000 0.400000 0
7.600000 0.400000 0
7.700000 0.400000 0
7.800000 0.400000 0
7.900000 0.400000 0
8.000000 0.400000 0
8.100000 0.400000 0
8.200000 0.400000 0
8.300000 0.400000 0
8.400000 0.400000 0
8.500000 0.400000 0
8.600000 0.400000 0
[...]
POINT_DATA 2121 

VECTORS velocity float
0.500000 0.000000 0
0.000003 0.000000 0
0.000010 0.000000 0
0.000020 0.000000 0
0.000029 0.000000 0
0.000035 0.000000 0
0.000034 0.000000 0
0.000020 0.000000 0
-0.000011 0.000000 0
-0.000065 0.000000 0
-0.000146 0.000000 0
-0.000254 0.000000 0
-0.000386 0.000000 0
-0.000534 0.000000 0
-0.000678 0.000000 0
-0.000789 0.000000 0
-0.000827 0.000000 0
-0.000753 0.000000 0
-0.000545 0.000000 0
-0.000201 0.000000 0
0.000245 0.000000 0
0.000745 0.000000 0
0.001245 0.000000 0
0.001694 0.000000 0
0.002049 0.000000 0
0.002280 0.000000 0
0.002364 0.000000 0
0.002287 0.000000 0
0.002039 0.000000 0
0.001621 0.000000 0
0.001034 0.000000 0
0.000283 0.000000 0
-0.000627 0.000000 0
-0.001683 0.000000 0
-0.002788 0.000000 0
-0.003813 0.000000 0
-0.004595 0.000000 0
-0.004961 0.000000 0
-0.004780 0.000000 0
-0.004025 0.000000 0
-0.002809 0.000000 0
-0.001357 0.000000 0
0.000094 0.000000 0
0.001436 0.000000 0
0.002589 0.000000 0
0.003500 0.000000 0
0.004152 0.000000 0
0.004547 0.000000 0
0.004699 0.000000 0
0.004627 0.000000 0
0.004343 0.000000 0
0.003854 0.000000 0
0.003162 0.000000 0
0.002259 0.000000 0
0.001144 0.000000 0
-0.000146 0.000000 0
-0.001462 0.000000 0
-0.002713 0.000000 0
-0.003857 0.000000 0
-0.004859 0.000000 0
-0.005665 0.000000 0
-0.006203 0.000000 0
-0.006374 0.000000 0
-0.006065 0.000000 0
-0.005192 0.000000 0
-0.003773 0.000000 0
-0.001985 0.000000 0
-0.000118 0.000000 0
0.001669 0.000000 0
0.003285 0.000000 0
0.004632 0.000000 0
0.005626 0.000000 0
0.006210 0.000000 0
0.006351 0.000000 0
0.006045 0.000000 0
0.005314 0.000000 0
0.004221 0.000000 0
0.002861 0.000000 0
0.001369 0.000000 0
-0.000079 0.000000 0
-0.001255 0.000000 0
-0.002160 0.000000 0
-0.002859 0.000000 0
-0.003422 0.000000 0
-0.003902 0.000000 0
-0.004327 0.000000 0
-0.004692 0.000000 0
-0.004954 0.000000 0
-0.005036 0.000000 0
-0.004845 0.000000 0
-0.004294 0.000000 0
-0.003348 0.000000 0
-0.002058 0.000000 0
-0.000572 0.000000 0
0.000951 0.000000 0
0.002444 0.000000 0
0.003832 0.000000 0
0.005016 0.000000 0
0.005894 0.000000 0
0.006386 0.000000 0
0.006653 0.000000 0
1.000000 -0.000002 0
1.002483 -0.004668 0
1.010392 -0.010078 0
1.024044 -0.015942 0
1.043850 -0.022073 0
1.070074 -0.028111 0
1.102528 -0.033417 0
1.140170 -0.037107 0
1.180814 -0.038292 0
1.221053 -0.036667 0
1.257811 -0.032813 0
1.289293 -0.027745 0
1.314961 -0.022417 0
1.335150 -0.017481 0
1.350662 -0.013252 0
1.362428 -0.009732 0
1.371194 -0.006669 0
1.377286 -0.003672 0
1.380500 -0.000373 0
1.380234 0.003446 0
1.375784 0.007771 0
1.366635 0.012370 0
1.352645 0.016898 0
1.334092 0.020991 0
1.311624 0.024337 0
1.286167 0.026700 0
1.258839 0.027918 0
1.230878 0.027894 0
1.203583 0.026584 0
1.178266 0.023984 0
1.156216 0.020118 0
1.138674 0.015013 0
1.126819 0.008679 0
1.121729 0.001232 0
1.124288 -0.006822 0
1.134938 -0.014612 0
1.153276 -0.021076 0
1.177688 -0.025078 0
1.205305 -0.025706 0
1.232361 -0.022642 0
1.254946 -0.016388 0
1.269935 -0.008176 0
1.275692 0.000616 0
1.272119 0.009049 0
1.260033 0.016547 0
1.240762 0.022719 0
1.215893 0.027370 0
1.187086 0.030449 0
1.155965 0.031993 0
1.124066 0.032071 0
1.092833 0.030746 0
1.063629 0.028051 0
1.037750 0.023977 0
1.016401 0.018489 0
1.000634 0.011601 0
0.991251 0.003593 0
0.988749 -0.004776 0
0.993319 -0.012754 0
1.004835 -0.019964 0
1.022875 -0.026153 0
1.046727 -0.031040 0
1.075394 -0.034265 0
1.107526 -0.035349 0
1.141268 -0.033745 0
1.174145 -0.029044 0
1.203130 -0.021320 0
1.225026 -0.011429 0
1.237145 -0.000762 0
1.238177 0.009605 0
1.228571 0.019067 0
1.209579 0.027104 0
1.182967 0.033241 0
1.150889 0.037111 0
1.115754 0.038473 0
1.080083 0.037226 0
1.046335 0.033432 0
1.016701 0.027357 0
0.992870 0.019514 0
0.975808 0.010678 0
0.965694 0.001941 0
0.962096 -0.005544 0
0.964215 -0.011344 0
0.971078 -0.015749 0
0.981868 -0.019163 0
0.996016 -0.021929 0
1.013199 -0.024261 0
1.033239 -0.026187 0
1.055924 -0.027534 0
1.080802 -0.027949 0
1.107005 -0.026973 0
1.133185 -0.024196 0
1.157573 -0.019448 0
1.178168 -0.012996 0
1.193050 -0.005572 0
1.200807 0.001968 0
1.201036 0.008998 0
1.194528 0.014959 0
1.182761 0.019103 0
1.167862 0.020494 0
1.152608 0.016537 0
1.142118 0.012967 0
1.000000 -0.000005 0
1.002806 -0.010535 0
1.011160 -0.021651 0
1.025339 -0.033547 0
1.045980 -0.046119 0
1.073771 -0.058768 0
1.109067 -0.070186 0
1.151201 -0.078376 0
1.197901 -0.080973 0
1.243621 -0.077086 0
1.283964 -0.068329 0
1.317144 -0.057240 0
1.343181 -0.045947 0
1.363016 -0.035791 0
1.377983 -0.027367 0
1.389471 -0.020621 0
1.398590 -0.014948 0
1.405826 -0.009396 0
1.410808 -0.003038 0
1.412503 0.004626 0
1.409805 0.013509 0
1.401943 0.023050 0
1.388704 0.032453 0
1.370431 0.040931 0
1.347889 0.047836 0
1.322117 0.052696 0
1.294321 0.055200 0
1.265800 0.055166 0
1.237887 0.052522 0
1.211906 0.047277 0
1.189127 0.039502 0
1.170744 0.029307 0
1.157868 0.016856 0
1.151550 0.002442 0
1.152854 -0.013299 0
1.162669 -0.029078 0
1.181075 -0.042839 0
1.206868 -0.052119 0
1.237468 -0.054763 0
1.269097 -0.049731 0
1.297260 -0.037663 0
1.317685 -0.020836 0
1.327636 -0.002273 0
1.326851 0.015570 0
1.316610 0.031267 0
1.298634 0.044051 0
1.274792 0.053587 0
1.246905 0.059838 0
1.216655 0.062930 0
1.185555 0.063042 0
1.154964 0.060347 0
1.126092 0.054993 0
1.100001 0.047139 0
1.077554 0.037027 0
1.059355 0.025061 0
1.045737 0.011795 0
1.036934 -0.002158 0
1.033357 -0.016176 0
1.035289 -0.029645 0
1.042813 -0.041982 0
1.055890 -0.052608 0
1.074457 -0.060888 0
1.098337 -0.065964 0
1.126896 -0.066709 0
1.158704 -0.061951 0
1.191357 -0.050971 0
1.221521 -0.034105 0
1.245266 -0.013240 0
1.259082 0.008485 0
1.261672 0.028508 0
1.254039 0.045514 0
1.237824 0.058601 0
1.215043 0.067123 0
1.187910 0.070716 0
1.158654 0.069331 0
1.129342 0.063293 0
1.101690 0.053375 0
1.076926 0.040803 0
1.055734 0.027086 0
1.038357 0.013623 0
1.024920 0.001390 0
1.015582 -0.009072 0
1.010210 -0.017742 0
1.008555 -0.025027 0
1.010517 -0.031421 0
1.016232 -0.037312 0
1.026019 -0.042814 0
1.040153 -0.047653 0
1.058592 -0.051170 0
1.080815 -0.052472 0
1.105796 -0.050657 0
1.132063 -0.045072 0
1.157793 -0.035566 0
1.180904 -0.022728 0
1.199309 -0.008075 0
1.211505 0.006189 0
1.217232 0.018186 0
1.217600 0.026577 0
1.214177 0.030063 0
1.208683 0.025655 0
1.202859 0.021515 0
1.000000 -0.000009 0
1.002413 -0.015917 0
1.009946 -0.032648 0
1.023158 -0.050800 0
1.043175 -0.070542 0
1.071526 -0.091236 0
1.109767 -0.110884 0
1.158353 -0.125979 0
1.215954 -0.130749 0
1.270326 -0.122767 0
1.314544 -0.106372 0
1.347846 -0.086999 0
1.371806 -0.068326 0
1.388518 -0.052320 0
1.400172 -0.039744 0
1.408925 -0.030376 0
1.416592 -0.023061 0
1.424101 -0.015927 0
1.430856 -0.007087 0
1.434848 0.004411 0
1.433979 0.018294 0
1.426972 0.033435 0
1.413540 0.048372 0
1.394205 0.061768 0
1.369977 0.072614 0
1.342102 0.080231 0
1.311932 0.084199 0
1.280866 0.084292 0
1.250304 0.080441 0
1.221604 0.072706 0
1.196031 0.061242 0
1.174726 0.046236 0
1.158727 0.027836 0
1.149054 0.006209 0
1.146852 -0.017978 0
1.153258 -0.042870 0
1.168661 -0.065313 0
1.192399 -0.081508 0
1.222904 -0.087972 0
1.257527 -0.082471 0
1.292122 -0.065012 0
1.321217 -0.038589 0
1.339503 -0.008587 0
1.344488 0.020038 0
1.337764 0.044726 0
1.321815 0.064500 0
1.299096 0.079062 0
1.271810 0.088549 0
1.241822 0.093305 0
1.210670 0.093725 0
1.179617 0.090172 0
1.149700 0.082976 0
1.121766 0.072478 0
1.096490 0.059098 0
1.074374 0.043381 0
1.055725 0.025977 0
1.040600 0.007567 0
1.028839 -0.011145 0
1.020363 -0.029457 0
1.015551 -0.046791 0
1.015281 -0.062722 0
1.020889 -0.076750 0
1.033679 -0.087824 0
1.054142 -0.094149 0
1.081538 -0.093543 0
1.113929 -0.084174 0
1.148393 -0.065375 0
1.181243 -0.038359 0
1.208241 -0.006839 0
1.225457 0.024073 0
1.231990 0.050916 0
1.228957 0.072199 0
1.217947 0.086987 0
1.200776 0.094825 0
1.179287 0.095757 0
1.155186 0.090359 0
1.129945 0.079736 0
1.104781 0.065433 0
1.080688 0.049210 0
1.058438 0.032718 0
1.038489 0.017195 0
1.020992 0.003329 0
1.006035 -0.008759 0
0.993810 -0.019507 0
0.984960 -0.029643 0
0.980498 -0.039800 0
0.981452 -0.050145 0
0.988467 -0.060144 0
1.001526 -0.068648 0
1.019952 -0.074214 0
1.042595 -0.075481 0
1.068038 -0.071483 0
1.094754 -0.061874 0
1.121179 -0.047125 0
1.145725 -0.028670 0
1.166744 -0.008962 0
1.182775 0.008827 0
1.193442 0.022121 0
1.199473 0.029374 0
1.201655 0.027818 0
1.200105 0.025418 0
1.000000 -0.000012 0
1.001884 -0.020571 0
1.007948 -0.042433 0
1.019031 -0.066812 0
1.036862 -0.094524 0
1.064201 -0.125398 0
1.104809 -0.157049 0
1.162021 -0.184600 0
1.239983 -0.192983 0
1.305636 -0.175713 0
1.350483 -0.145887 0
1.379050 -0.114540 0
1.396272 -0.086656 0
1.405658 -0.064193 0
1.410147 -0.047811 0
1.412734 -0.037079 0
1.416347 -0.030161 0
1.423097 -0.023697 0
1.432621 -0.013823 0
1.441297 0.001466 0
1.444368 0.021348 0
1.439595 0.043453 0
1.426701 0.065183 0
1.406630 0.084456 0
1.380799 0.099902 0
1.350715 0.110704 0
1.317885 0.116399 0
1.283818 0.116757 0
1.250018 0.111746 0
1.217924 0.101513 0
1.188831 0.086343 0
1.163815 0.066575 0
1.143679 0.042491 0
1.128830 0.014279 0
1.119229 -0.017540 0
1.115455 -0.050924 0
1.118658 -0.082018 0
1.129866 -0.106399 0
1.150344 -0.119927 0
1.180464 -0.118986 0
1.218168 -0.101391 0
1.258223 -0.068254 0
1.292761 -0.025581 0
1.313862 0.017272 0
1.319276 0.053904 0
1.312157 0.082682 0
1.295703 0.103554 0
1.272680 0.117076 0
1.245379 0.124034 0
1.215632 0.125210 0
1.184892 0.121280 0
1.154303 0.112807 0
1.124777 0.100312 0
1.097009 0.084382 0
1.071399 0.065789 0
1.047887 0.045532 0
1.025843 0.024690 0
1.004326 0.004024 0
0.982928 -0.016394 0
0.962869 -0.036937 0
0.947479 -0.057984 0
0.940435 -0.079323 0
0.944011 -0.099254 0
0.958414 -0.114605 0
0.982276 -0.121775 0
1.013374 -0.117862 0
1.049064 -0.101456 0
1.086402 -0.073124 0
1.122024 -0.035767 0
1.151789 0.004721 0
1.171942 0.041978 0
1.182198 0.072608 0
1.183479 0.095268 0
1.177096 0.109339 0
1.164504 0.114883 0
1.147141 0.112597 0
1.126350 0.103743 0
1.103345 0.090024 0
1.079161 0.073392 0
1.054582 0.055785 0
1.030108 0.038799 0
1.006104 0.023345 0
0.983190 0.009403 0
0.962543 -0.003990 0
0.945808 -0.018146 0
0.934833 -0.033840 0
0.931014 -0.050820 0
0.934739 -0.067763 0
0.945439 -0.082692 0
0.961964 -0.093578 0
0.982948 -0.098780 0
1.007016 -0.097268 0
1.032878 -0.088744 0
1.059336 -0.073737 0
1.085252 -0.053678 0
1.109453 -0.030898 0
1.130619 -0.008548 0
1.147346 0.009842 0
1.159146 0.021813 0
1.166210 0.024986 0
1.167833 0.025587 0
1.000000 -0.000016 0
1.001056 -0.023955 0
1.004651 -0.049832 0
1.011724 -0.079751 0
1.024415 -0.115749 0
1.046749 -0.159219 0
1.085716 -0.208741 0
1.150945 -0.261190 0
1.264701 -0.274402 0
1.335698 -0.233305 0
1.367193 -0.179824 0
1.379716 -0.132826 0
1.382428 -0.094971 0
1.378715 -0.066232 0
1.370891 -0.046858 0
1.362037 -0.036613 0
1.356145 -0.033461 0
1.357932 -0.032238 0
1.369210 -0.025324 0
1.385965 -0.007373 0
1.398371 0.019959 0
1.400152 0.051065 0
1.391491 0.081299 0
1.374262 0.107632 0
1.350376 0.128492 0
1.321428 0.143108 0
1.288857 0.151058 0
1.254125 0.152121 0
1.218761 0.146298 0
1.184260 0.133856 0
1.151874 0.115315 0
1.122399 0.091351 0
1.096095 0.062783 0
1.072483 0.030622 0
1.049779 -0.004639 0
1.025887 -0.042337 0
1.003885 -0.079762 0
0.991071 -0.113231 0
0.993731 -0.138607 0
1.014236 -0.150332 0
1.050927 -0.142809 0
1.099017 -0.113220 0
1.151019 -0.064263 0
1.197009 -0.006513 0
1.227218 0.046394 0
1.240777 0.088036 0
1.241168 0.118502 0
1.231430 0.138836 0
1.214157 0.150316 0
1.191527 0.154175 0
1.165351 0.151465 0
1.137118 0.143054 0
1.108007 0.129735 0
1.078776 0.112439 0
1.049467 0.092465 0
1.019173 0.071496 0
0.986504 0.051091 0
0.951100 0.031733 0
0.915159 0.011963 0
0.883265 -0.011379 0
0.860608 -0.040325 0
0.850769 -0.073318 0
0.853917 -0.105841 0
0.868154 -0.132452 0
0.891144 -0.148539 0
0.920763 -0.150999 0
0.955067 -0.138440 0
0.992099 -0.111356 0
1.029696 -0.072263 0
1.065229 -0.025882 0
1.094717 0.020470 0
1.115382 0.060625 0
1.127160 0.092052 0
1.130648 0.113763 0
1.126782 0.125676 0
1.116627 0.128475 0
1.101244 0.123494 0
1.081590 0.112586 0
1.058428 0.097936 0
1.032345 0.081734 0
1.003988 0.065636 0
0.974496 0.050211 0
0.945857 0.034764 0
0.920731 0.017838 0
0.901635 -0.001970 0
0.890182 -0.025043 0
0.886851 -0.050088 0
0.891026 -0.074606 0
0.901493 -0.095910 0
0.916922 -0.111759 0
0.936100 -0.120571 0
0.957966 -0.121450 0
0.981573 -0.114231 0
1.006044 -0.099536 0
1.030535 -0.078823 0
1.054175 -0.054366 0
1.075999 -0.029104 0
1.094812 -0.006443 0
1.109271 0.010473 0
1.118838 0.019094 0
1.122466 0.023167 0
1.000000 -0.000019 0
0.999879 -0.025312 0
0.999832 -0.053137 0
1.000496 -0.086613 0
1.003666 -0.129587 0
1.013565 -0.186736 0
1.039807 -0.261283 0
1.102058 -0.363622 0
1.264639 -0.377773 0
1.312025 -0.278242 0
1.299094 -0.189942 0
1.280098 -0.129812 0
1.261617 -0.085692 0
1.241626 -0.052694 0
1.218928 -0.031170 0
1.194060 -0.022369 0
1.171010 -0.026094 0
1.157204 -0.036799 0
1.161483 -0.041892 0
1.185328 -0.027732 0
1.217844 0.007124 0
1.239544 0.050295 0
1.246462 0.091037 0
1.243045 0.125534 0
1.231663 0.152698 0
1.213439 0.172186 0
1.189289 0.183664 0
1.160404 0.186816 0
1.128306 0.181575 0
1.094570 0.168363 0
1.060022 0.148166 0
1.023557 0.122317 0
0.982085 0.092370 0
0.933409 0.060558 0
0.880240 0.029019 0
0.830001 -0.005067 0
0.791619 -0.047238 0
0.773335 -0.096281 0
0.776888 -0.143130 0
0.799962 -0.176219 0
0.839345 -0.186208 0
0.891568 -0.168383 0
0.952343 -0.123611 0
1.015613 -0.058965 0
1.071657 0.010100 0
1.111118 0.068695 0
1.134454 0.112864 0
1.144358 0.144050 0
1.143200 0.163900 0
1.133129 0.173979 0
1.116055 0.175652 0
1.093566 0.170114 0
1.066730 0.158617 0
1.035775 0.142884 0
0.999976 0.125354 0
0.958422 0.108458 0
0.911898 0.092726 0
0.864571 0.075332 0
0.823389 0.051404 0
0.794749 0.017577 0
0.781017 -0.025524 0
0.780490 -0.072670 0
0.789742 -0.116676 0
0.805941 -0.151869 0
0.827469 -0.174420 0
0.853520 -0.181822 0
0.883475 -0.172829 0
0.916453 -0.147790 0
0.951161 -0.108933 0
0.985898 -0.060337 0
1.018318 -0.008213 0
1.044647 0.040129 0
1.063317 0.079964 0
1.074106 0.109679 0
1.077290 0.128868 0
1.073397 0.138099 0
1.063015 0.138743 0
1.046675 0.132804 0
1.024859 0.122600 0
0.998237 0.110188 0
0.968120 0.096611 0
0.936830 0.081439 0
0.907551 0.063132 0
0.883549 0.040195 0
0.867158 0.012365 0
0.859026 -0.019093 0
0.858348 -0.051701 0
0.863707 -0.082442 0
0.873725 -0.108625 0
0.887314 -0.128222 0
0.903678 -0.139861 0
0.922196 -0.142778 0
0.942307 -0.136860 0
0.963424 -0.122736 0
0.984905 -0.101845 0
1.006040 -0.076399 0
1.026030 -0.049223 0
1.043945 -0.023466 0
1.058606 -0.002250 0
1.068864 0.011753 0
1.073473 0.019248 0
1.000000 -0.000023 0
0.998455 -0.023877 0
0.993891 -0.050486 0
0.986082 -0.083622 0
0.975129 -0.128855 0
0.962483 -0.195397 0
0.954419 -0.297271 0
0.972995 -0.486060 0
1.131234 -0.484407 0
1.119018 -0.267796 0
1.016610 -0.147933 0
0.960672 -0.095386 0
0.926174 -0.056536 0
0.893151 -0.023580 0
0.849458 0.000670 0
0.800590 0.011269 0
0.756175 0.003359 0
0.726858 -0.022748 0
0.727647 -0.053485 0
0.765282 -0.063772 0
0.829895 -0.034294 0
0.898888 0.022409 0
0.949932 0.077762 0
0.981755 0.122394 0
1.000337 0.158061 0
1.006788 0.185446 0
1.001572 0.204056 0
0.985421 0.213067 0
0.959004 0.212094 0
0.922320 0.202103 0
0.874493 0.186290 0
0.814979 0.169251 0
0.746194 0.152895 0
0.675705 0.132429 0
0.615767 0.098732 0
0.578647 0.046248 0
0.567875 -0.023133 0
0.577043 -0.098537 0
0.598872 -0.165270 0
0.629720 -0.212826 0
0.669170 -0.234452 0
0.717825 -0.226255 0
0.775315 -0.188345 0
0.839322 -0.125863 0
0.905132 -0.049147 0
0.962827 0.025202 0
1.005062 0.085225 0
1.032727 0.130052 0
1.047339 0.161508 0
1.050434 0.181284 0
1.043447 0.190990 0
1.027463 0.192342 0
1.002901 0.187490 0
0.969497 0.179155 0
0.927180 0.169781 0
0.877999 0.159538 0
0.827634 0.144905 0
0.784262 0.120205 0
0.754744 0.081748 0
0.741364 0.030956 0
0.741658 -0.026103 0
0.750264 -0.082080 0
0.763022 -0.131329 0
0.778013 -0.170215 0
0.794948 -0.196155 0
0.814399 -0.207043 0
0.837049 -0.201411 0
0.863087 -0.179079 0
0.891932 -0.141745 0
0.922336 -0.093076 0
0.952609 -0.038316 0
0.980088 0.015589 0
1.001865 0.062556 0
1.016891 0.099753 0
1.024763 0.126348 0
1.025415 0.142714 0
1.018937 0.150179 0
1.005539 0.150705 0
0.985732 0.146338 0
0.960703 0.138435 0
0.932660 0.127005 0
0.904734 0.110742 0
0.880264 0.088008 0
0.861811 0.058195 0
0.850520 0.022516 0
0.846175 -0.016270 0
0.847536 -0.054806 0
0.853113 -0.090020 0
0.861710 -0.119554 0
0.872542 -0.141750 0
0.885174 -0.155490 0
0.899380 -0.160116 0
0.914979 -0.155496 0
0.931696 -0.142171 0
0.949097 -0.121476 0
0.966595 -0.095527 0
0.983478 -0.067045 0
0.998923 -0.039056 0
1.011993 -0.014482 0
1.021591 0.004191 0
1.026355 0.014736 0
1.000000 -0.000025 0
0.997079 -0.019293 0
0.988081 -0.040802 0
0.971579 -0.067888 0
0.944890 -0.106024 0
0.903187 -0.166063 0
0.837612 -0.271833 0
0.732433 -0.540474 0
0.547489 -0.523832 0
0.000377 -0.163655 0
0.400501 -0.031634 0
0.332823 -0.039414 0
0.320521 -0.018208 0
0.311321 0.023986 0
0.284048 0.061355 0
0.243776 0.070876 0
0.210305 0.047601 0
0.202105 -0.008307 0
0.228463 -0.080354 0
0.287626 -0.130017 0
0.373354 -0.126518 0
0.475204 -0.069780 0
0.574682 0.008133 0
0.652256 0.075092 0
0.705669 0.127628 0
0.739199 0.170915 0
0.753493 0.204994 0
0.748781 0.229346 0
0.724933 0.244639 0
0.682044 0.252837 0
0.622466 0.255470 0
0.553842 0.250579 0
0.489953 0.231607 0
0.445942 0.190947 0
0.430347 0.126040 0
0.441269 0.042788 0
0.468245 -0.045672 0
0.497930 -0.127315 0
0.525001 -0.195844 0
0.550310 -0.246554 0
0.577652 -0.274351 0
0.611540 -0.274565 0
0.655043 -0.245144 0
0.708248 -0.188818 0
0.768202 -0.113443 0
0.829355 -0.031273 0
0.881660 0.042927 0
0.920448 0.101737 0
0.945987 0.146156 0
0.958832 0.177834 0
0.959571 0.198586 0
0.948565 0.210623 0
0.925985 0.216546 0
0.892543 0.218568 0
0.850984 0.216815 0
0.807208 0.207967 0
0.769219 0.186426 0
0.743709 0.148185 0
0.732934 0.094265 0
0.734588 0.030627 0
0.744076 -0.034461 0
0.756611 -0.094071 0
0.769206 -0.144461 0
0.780662 -0.183832 0
0.791223 -0.210844 0
0.802186 -0.223960 0
0.815295 -0.221554 0
0.831934 -0.202710 0
0.852486 -0.168219 0
0.876203 -0.121051 0
0.901552 -0.066002 0
0.926576 -0.009164 0
0.948275 0.043124 0
0.964743 0.086744 0
0.974972 0.120307 0
0.978397 0.143887 0
0.974767 0.158582 0
0.964225 0.165972 0
0.947587 0.167399 0
0.926627 0.163222 0
0.904065 0.152543 0
0.883021 0.133798 0
0.866122 0.106019 0
0.854785 0.069902 0
0.849132 0.027964 0
0.848416 -0.016146 0
0.851419 -0.058676 0
0.856869 -0.096654 0
0.863788 -0.128091 0
0.871593 -0.151723 0
0.880088 -0.166736 0
0.889371 -0.172620 0
0.899654 -0.169212 0
0.911053 -0.156891 0
0.923442 -0.136782 0
0.936415 -0.110817 0
0.949349 -0.081587 0
0.961479 -0.052018 0
0.971963 -0.024955 0
0.979936 -0.002645 0
0.984232 0.010339 0
1.000000 -0.000026 0
0.996146 -0.012048 0
0.984148 -0.025023 0
0.961761 -0.040467 0
0.924380 -0.060501 0
0.862791 -0.088156 0
0.757376 -0.126554 0
0.564900 -0.195974 0
0.073597 -0.000250 0
-0.532275 0.122075 0
0.000000 -0.000070 0
-0.031110 -0.025881 0
-0.048224 -0.035070 0
-0.078063 0.012856 0
-0.107069 0.068178 0
-0.132289 0.084975 0
-0.140651 0.044993 0
-0.117010 -0.040942 0
-0.071763 -0.139044 0
-0.014917 -0.208701 0
0.057319 -0.221910 0
0.146970 -0.178955 0
0.249493 -0.099327 0
0.347998 -0.008629 0
0.423420 0.071081 0
0.473587 0.137585 0
0.500643 0.194437 0
0.505315 0.241590 0
0.488999 0.278794 0
0.456035 0.304533 0
0.415681 0.314455 0
0.381465 0.301727 0
0.366382 0.260758 0
0.376573 0.191998 0
0.408664 0.103368 0
0.451961 0.008313 0
0.492099 -0.079831 0
0.523031 -0.155330 0
0.543663 -0.217687 0
0.555838 -0.265515 0
0.564138 -0.295719 0
0.575126 -0.303683 0
0.595295 -0.285090 0
0.628272 -0.239059 0
0.673188 -0.170292 0
0.725419 -0.088293 0
0.777566 -0.005906 0
0.820354 0.065688 0
0.851077 0.123088 0
0.869206 0.167663 0
0.874599 0.201220 0
0.867384 0.225890 0
0.848469 0.243474 0
0.820556 0.254119 0
0.788949 0.255079 0
0.760849 0.241265 0
0.742688 0.208366 0
0.737270 0.156454 0
0.743164 0.090832 0
0.756505 0.019776 0
0.772636 -0.048163 0
0.787839 -0.107248 0