# vtk DataFile Version 2.0
generated by CFD-lab course output (written by Tobias Neckel) 
ASCII

DATASET STRUCTURED_GRID
DIMENSIONS  101 21 1 
POINTS 2121 float

0.000000 0.000000 0
0.100000 0.000000 0
0.200000 0.000000 0
0.300000 0.000000 0
0.400000 0.000000 0
0.500000 0.000000 0
0.600000 0.000000 0
0.700000 0.000000 0
0.800000 0.000000 0
0.900000 0.000000 0
1.000000 0.000000 0
1.100000 0.000000 0
1.200000 0.000000 0
1.300000 0.000000 0
1.400000 0.000000 0
1.500000 0.000000 0
1.600000 0.000000 0
1.700000 0.000000 0
1.800000 0.000000 0
1.900000 0.000000 0
2.000000 0.000000 0
2.100000 0.000000 0
2.200000 0.000000 0
2.300000 0.000000 0
2.400000 0.000000 0
2.500000 0.000000 0
2.600000 0.000000 0
2.700000 0.000000 0
2.800000 0.000000 0
2.900000 0.000000 0
3.000000 0.000000 0
3.100000 0.000000 0
3.200000 0.000000 0
3.300000 0.000000 0
3.400000 0.000000 0
3.500000 0.000000 0
3.600000 0.000000 0
3.700000 0.000000 0
3.800000 0.000000 0
3.900000 0.000000 0
4.000000 0.000000 0
4.100000 0.000000 0
4.200000 0.000000 0
4.300000 0.000000 0
4.400000 0.000000 0
4.500000 0.000000 0
4.600000 0.000000 0
4.700000 0.000000 0
4.800000 0.000000 0
4.900000 0.000000 0
5.000000 0.000000 0
5.100000 0.000000 0
5.200000 0.000000 0
5.300000 0.000000 0
5.400000 0.000000 0
5.500000 0.000000 0
5.600000 0.000000 0
5.700000 0.000000 0
5.800000 0.000000 0
5.900000 0.000000 0
6.000000 0.000000 0
6.100000 0.000000 0
6.200000 0.000000 0
6.300000 0.000000 0
6.400000 0.000000 0
6.500000 0.000000 0
6.600000 0.000000 0
6.700000 0.000000 0
6.800000 0.000000 0
6.900000 0.000000 0
7.000000 0.000000 0
7.100000 0.000000 0
7.200000 0.000000 0
7.300000 0.000000 0
7.400000 0.000000 0
7.500000 0.000000 0
7.600000 0.000000 0
7.700000 0.000000 0
7.800000 0.000000 0
7.900000 0.000000 0
8.000000 0.000000 0
8.100000 0.000000 0
8.200000 0.000000 0
8.300000 0.000000 0
8.400000 0.000000 0
8.500000 0.000000 0
8.600000 0.000000 0
8.700000 0.000000 0
8.800000 0.000000 0
8.900000 0.000000 0
9.000000 0.000000 0
9.100000 0.000000 0
9.200000 0.000000 0
9.300000 0.000000 0
9.400000 0.000000 0
9.500000 0.000000 0
9.600000 0.000000 0
9.700000 0.000000 0
9.800000 0.000000 0
9.900000 0.000000 0
10.000000 0.000000 0
0.000000 0.100000 0
0.100000 0.100000 0
0.200000 0.100000 0
0.300000 0.100000 0
0.400000 0.100000 0
0.500000 0.100000 0
0.600000 0.100000 0
0.700000 0.100000 0
0.800000 0.100000 0
0.900000 0.100000 0
1.000000 0.100000 0
1.100000 0.100000 0
1.200000 0.100000 0
1.300000 0.100000 0
1.400000 0.100000 0
1.500000 0.100000 0
1.600000 0.100000 0
1.700000 0.100000 0
1.800000 0.100000 0
1.900000 0.100000 0
2.000000 0.100000 0
2.100000 0.100000 0
2.200000 0.100000 0
2.300000 0.100000 0
2.400000 0.100000 0
2.500000 0.100000 0
2.600000 0.100000 0
2.700000 0.100000 0
2.800000 0.100000 0
2.900000 0.100000 0
3.000000 0.100000 0
3.100000 0.100000 0
3.200000 0.100000 0
3.300000 0.100000 0
3.400000 0.100000 0
3.500000 0.100000 0
3.600000 0.100000 0
3.700000 0.100000 0
3.800000 0.100000 0
3.900000 0.100000 0
4.000000 0.100000 0
4.100000 0.100000 0
4.200000 0.100000 0
4.300000 0.100000 0
4.400000 0.100000 0
4.500000 0.100000 0
4.600000 0.100000 0
4.700000 0.100000 0
4.800000 0.100000 0
4.900000 0.100000 0
5.000000 0.100000 0
5.100000 0.100000 0
5.200000 0.100000 0
5.300000 0.100000 0
5.400000 0.100000 0
5.500000 0.100000 0
5.600000 0.100000 0
5.700000 0.100000 0
5.800000 0.100000 0
5.900000 0.100000 0
6.000000 0.100000 0
6.100000 0.100000 0
6.200000 0.100000 0
6.300000 0.100000 0
6.400000 0.100000 0
6.500000 0.100000 0
6.600000 0.100000 0
6.700000 0.100000 0
6.800000 0.100000 0
6.900000 0.100000 0
7.000000 0.100000 0
7.100000 0.100000 0
7.200000 0.100000 0
7.300000 0.100000 0
7.400000 0.100000 0
7.500000 0.100000 0
7.600000 0.100000 0
7.700000 0.100000 0
7.800000 0.100000 0
7.900000 0.100000 0
8.000000 0.100000 0
8.100000 0.100000 0
8.200000 0.100000 0
8.300000 0.100000 0
8.400000 0.100000 0
8.500000 0.100000 0
8.600000 0.100000 0
8.700000 0.100000 0
8.800000 0.100000 0
8.900000 0.100000 0
9.000000 0.100000 0
9.100000 0.100000 0
9.200000 0.100000 0
9.300000 0.100000 0
9.400000 0.100000 0
9.500000 0.100000 0
9.600000 0.100000 0
9.700000 0.100000 0
9.800000 0.100000 0
9.900000 0.100000 0
10.000000 0.100000 0
0.000000 0.200000 0
0.100000 0.200000 0
0.200000 0.200000 0
0.300000 0.200000 0
0.400000 0.200000 0
0.500000 0.200000 0
0.600000 0.200000 0
0.700000 0.200000 0
0.800000 0.200000 0
0.900000 0.200000 0
1.000000 0.200000 0
1.100000 0.200000 0
1.200000 0.200000 0
1.300000 0.200000 0
1.400000 0.200000 0
1.500000 0.200000 0
1.600000 0.200000 0
1.700000 0.200000 0
1.800000 0.200000 0
1.900000 0.200000 0
2.000000 0.200000 0
2.100000 0.200000 0
2.200000 0.200000 0
2.300000 0.200000 0
2.400000 0.200000 0
2.500000 0.200000 0
2.600000 0.200000 0
2.700000 0.200000 0
2.800000 0.200000 0
2.900000 0.200000 0
3.000000 0.200000 0
3.100000 0.200000 0
3.200000 0.200000 0
3.300000 0.200000 0
3.400000 0.200000 0
3.500000 0.200000 0
3.600000 0.200000 0
3.700000 0.200000 0
3.800000 0.200000 0
3.900000 0.200000 0
4.000000 0.200000 0
4.100000 0.200000 0
4.200000 0.200000 0
4.300000 0.200000 0
4.400000 0.200000 0
4.500000 0.200000 0
4.600000 0.200000 0
4.700000 0.200000 0
4.800000 0.200000 0
4.900000 0.200000 0
5.000000 0.200000 0
5.100000 0.200000 0
5.200000 0.200000 0
5.300000 0.200000 0
5.400000 0.200000 0
5.500000 0.200000 0
5.600000 0.200000 0
5.700000 0.200000 0
5.800000 0.200000 0
5.900000 0.200000 0
6.000000 0.200000 0
6.100000 0.200000 0
6.200000 0.200000 0
6.300000 0.200000 0
6.400000 0.200000 0
6.500000 0.200000 0
6.600000 0.200000 0
6.700000 0.200000 0
6.800000 0.200000 0
6.900000 0.200000 0
7.000000 0.200000 0
7.100000 0.200000 0
7.200000 0.200000 0
7.300000 0.200000 0
7.400000 0.200000 0
7.500000 0.200000 0
7.600000 0.200000 0
7.700000 0.200000 0
7.800000 0.200000 0
7.900000 0.200000 0
8.000000 0.200000 0
8.100000 0.200000 0
8.200000 0.200000 0
8.300000 0.200000 0
8.400000 0.200000 0
8.500000 0.200000 0
8.600000 0.200000 0
8.700000 0.200000 0
8.800000 0.200000 0
8.900000 0.200000 0
9.000000 0.200000 0
9.100000 0.200000 0
9.200000 0.200000 0
9.300000 0.200000 0
9.400000 0.200000 0
9.500000 0.200000 0
9.600000 0.200000 0
9.700000 0.200000 0
9.800000 0.200000 0
9.900000 0.200000 0
10.000000 0.200000 0
0.000000 0.300000 0
0.100000 0.300000 0
0.200000 0.300000 0
0.300000 0.300000 0
0.400000 0.300000 0
0.500000 0.300000 0
0.600000 0.300000 0
0.700000 0.300000 0
0.800000 0.300000 0
0.900000 0.300000 0
1.000000 0.300000 0
1.100000 0.300000 0
1.200000 0.300000 0
1.300000 0.300000 0
1.400000 0.300000 0
1.500000 0.300000 0
1.600000 0.300000 0
1.700000 0.300000 0
1.800000 0.300000 0
1.900000 0.300000 0
2.000000 0.300000 0
2.100000 0.300000 0
2.200000 0.300000 0
2.300000 0.300000 0
2.400000 0.300000 0
2.500000 0.300000 0
2.600000 0.300000 0
2.700000 0.300000 0
2.800000 0.300000 0
2.900000 0.300000 0
3.000000 0.300000 0
3.100000 0.300000 0
3.200000 0.300000 0
3.300000 0.300000 0
3.400000 0.300000 0
3.500000 0.300000 0
3.600000 0.300000 0
3.700000 0.300000 0
3.800000 0.300000 0
3.900000 0.300000 0
4.000000 0.300000 0
4.100000 0.300000 0
4.200000 0.300000 0
4.300000 0.300000 0
4.400000 0.300000 0
4.500000 0.300000 0
4.600000 0.300000 0
4.700000 0.300000 0
4.800000 0.300000 0
4.900000 0.300000 0
5.000000 0.300000 0
5.100000 0.300000 0
5.200000 0.300000 0
5.300000 0.300000 0
5.400000 0.300000 0
5.500000 0.300000 0
5.600000 0.300000 0
5.700000 0.300000 0
5.800000 0.300000 0
5.900000 0.300000 0
6.000000 0.300000 0
6.100000 0.300000 0
6.200000 0.300000 0
6.300000 0.300000 0
6.400000 0.300000 0
6.500000 0.300000 0
6.600000 0.300000 0
6.700000 0.300000 0
6.800000 0.300000 0
6.900000 0.300000 0
7.000000 0.300000 0
7.100000 0.300000 0
7.200000 0.300000 0
7.300000 0.300000 0
7.400000 0.300000 0
7.500000 0.300000 0
7.600000 0.300000 0
7.700000 0.300000 0
7.800000 0.300000 0
7.900000 0.300000 0
8.000000 0.300000 0
8.100000 0.300000 0
8.200000 0.300000 0
8.300000 0.300000 0
8.400000 0.300000 0
8.500000 0.300000 0
8.600000 0.300000 0
8.700000 0.300000 0
8.800000 0.300000 0
8.900000 0.300000 0
9.000000 0.300000 0
9.100000 0.300000 0
9.200000 0.300000 0
9.300000 0.300000 0
9.400000 0.300000 0
9.500000 0.300000 0
9.600000 0.300000 0
9.700000 0.300000 0
9.800000 0.300000 0
9.900000 0.300000 0
10.000000 0.300000 0
0.000000 0.400000 0
0.100000 0.400000 0
0.200000 0.400000 0
0.300000 0.400000 0
0.400000 0.400000 0
0.500000 0.400000 0
0.600000 0.400000 0
0.700000 0.400000 0
0.800000 0.400000 0
0.900000 0.400000 0
1.000000 0.400000 0
1.100000 0.400000 0
1.200000 0.400000 0
1.300000 0.400000 0
1.400000 0.400000 0
1.500000 0.400000 0
1.600000 0.400000 0
1.700000 0.400000 0
1.800000 0.400000 0
1.900000 0.400000 0
2.000000 0.400000 0
2.100000 0.400000 0
2.200000 0.400000 0
2.300000 0.400000 0
2.400000 0.400000 0
2.500000 0.400000 0
2.600000 0.400000 0
2.700000 0.400000 0
2.800000 0.400000 0
2.900000 0.400000 0
3.000000 0.400000 0
3.100000 0.400000 0
3.200000 0.400000 0
3.300000 0.400000 0
3.400000 0.400000 0
3.500000 0.400000 0
3.600000 0.400000 0
3.700000 0.400000 0
3.800000 0.400000 0
3.900000 0.400000 0
4.000000 0.400000 0
4.100000 0.400000 0
4.200000 0.400000 0
4.300000 0.400000 0
4.400000 0.400000 0
4.500000 0.400000 0
4.600000 0.400000 0
4.700000 0.400000 0
4.800000 0.400000 0
4.900000 0.400000 0
5.000000 0.400000 0
5.100000 0.400000 0
5.200000 0.400000 0
5.300000 0.400000 0
5.400000 0.400000 0
5.500000 0.400000 0
5.600000 0.400000 0
5.700000 0.400000 0
5.800000 0.400000 0
5.900000 0.400000 0
6.000000 0.400000 0
6.100000 0.400000 0
6.200000 0.400000 0
6.300000 0.400000 0
6.400000 0.400000 0
6.500000 0.400000 0
6.600000 0.400000 0
6.700000 0.400000 0
6.800000 0.400000 0
6.900000 0.400000 0
7.000000 0.400000 0
7.100000 0.400000 0
7.200000 0.400000 0
7.300000 0.400000 0
7.400000 0.400000 0
7.500000 0.400000 0
7.600000 0.400000 0
7.700000 0.400000 0
7.800000 0.400000 0
7.900000 0.400000 0
8.000000 0.400000 0
8.100000 0.400000 0
8.200000 0.400000 0
8.300000 0.400000 0
8.400000 0.400000 0
8.500000 0.400000 0
8.600000 0.400000 0
[...]
POINT_DATA 2121 

VECTORS velocity float
0.500000 0.000000 0
0.000000 0.000000 0
-0.000000 0.000000 0
-0.000004 0.000000 0
-0.000013 0.000000 0
-0.000030 0.000000 0
-0.000056 0.000000 0
-0.000091 0.000000 0
-0.000141 0.000000 0
-0.000201 0.000000 0
-0.000270 0.000000 0
-0.000339 0.000000 0
-0.000400 0.000000 0
-0.000430 0.000000 0
-0.000412 0.000000 0
-0.000315 0.000000 0
-0.000124 0.000000 0
0.000160 0.000000 0
0.000512 0.000000 0
0.000898 0.000000 0
0.001274 0.000000 0
0.001598 0.000000 0
0.001833 0.000000 0
0.001948 0.000000 0
0.001921 0.000000 0
0.001740 0.000000 0
0.001399 0.000000 0
0.000900 0.000000 0
0.000253 0.000000 0
-0.000531 0.000000 0
-0.001437 0.000000 0
-0.002412 0.000000 0
-0.003329 0.000000 0
-0.004041 0.000000 0
-0.004386 0.000000 0
-0.004241 0.000000 0
-0.003576 0.000000 0
-0.002492 0.000000 0
-0.001195 0.000000 0
0.000118 0.000000 0
0.001345 0.000000 0
0.002406 0.000000 0
0.003253 0.000000 0
0.003866 0.000000 0
0.004248 0.000000 0
0.004408 0.000000 0
0.004357 0.000000 0
0.004103 0.000000 0
0.003652 0.000000 0
0.002999 0.000000 0
0.002137 0.000000 0
0.001055 0.000000 0
-0.000226 0.000000 0
-0.001566 0.000000 0
-0.002861 0.000000 0
-0.004055 0.000000 0
-0.005088 0.000000 0
-0.005883 0.000000 0
-0.006345 0.000000 0
-0.006362 0.000000 0
-0.005830 0.000000 0
-0.004709 0.000000 0
-0.003089 0.000000 0
-0.001225 0.000000 0
0.000615 0.000000 0
0.002337 0.000000 0
0.003840 0.000000 0
0.005039 0.000000 0
0.005868 0.000000 0
0.006289 0.000000 0
0.006289 0.000000 0
0.005874 0.000000 0
0.005073 0.000000 0
0.003940 0.000000 0
0.002560 0.000000 0
0.001062 0.000000 0
-0.000363 0.000000 0
-0.001508 0.000000 0
-0.002389 0.000000 0
-0.003073 0.000000 0
-0.003621 0.000000 0
-0.004075 0.000000 0
-0.004453 0.000000 0
-0.004733 0.000000 0
-0.004858 0.000000 0
-0.004738 0.000000 0
-0.004276 0.000000 0
-0.003406 0.000000 0
-0.002150 0.000000 0
-0.000641 0.000000 0
0.000956 0.000000 0
0.002567 0.000000 0
0.004107 0.000000 0
0.005461 0.000000 0
0.006498 0.000000 0
0.007089 0.000000 0
0.007139 0.000000 0
0.006644 0.000000 0
0.005738 0.000000 0
0.004699 0.000000 0
0.004173 0.000000 0
1.000000 -0.000000 0
1.002531 -0.004573 0
1.010393 -0.009953 0
1.023995 -0.015842 0
1.043797 -0.022052 0
1.070122 -0.028229 0
1.102844 -0.033735 0
1.140988 -0.037690 0
1.182444 -0.039198 0
1.223861 -0.037927 0
1.262186 -0.034409 0
1.295590 -0.029585 0
1.323418 -0.024294 0
1.345750 -0.019042 0
1.362947 -0.013996 0
1.375317 -0.009078 0
1.382914 -0.004125 0
1.385554 0.000959 0
1.382987 0.006145 0
1.375087 0.011268 0
1.362002 0.016062 0
1.344218 0.020225 0
1.322545 0.023483 0
1.298048 0.025623 0
1.271975 0.026499 0
1.245677 0.026038 0
1.220538 0.024229 0
1.197918 0.021107 0
1.179108 0.016746 0
1.165302 0.011223 0
1.157576 0.004638 0
1.156819 -0.002663 0
1.163546 -0.009933 0
1.177535 -0.016156 0
1.197436 -0.020233 0
1.220656 -0.021255 0
1.243688 -0.018861 0
1.262859 -0.013476 0
1.275245 -0.006206 0
1.279298 0.001730 0
1.274837 0.009465 0
1.262530 0.016417 0
1.243551 0.022196 0
1.219335 0.026601 0
1.191393 0.029570 0
1.161219 0.031116 0
1.130241 0.031281 0
1.099825 0.030106 0
1.071285 0.027603 0
1.045894 0.023752 0
1.024864 0.018494 0
1.009298 0.011787 0
1.000090 0.003824 0
0.997868 -0.004694 0
1.002971 -0.012977 0
1.015395 -0.020552 0
1.034748 -0.027029 0
1.060214 -0.031984 0
1.090542 -0.034923 0
1.124009 -0.035296 0
1.158319 -0.032594 0
1.190570 -0.026611 0
1.217472 -0.017790 0
1.235877 -0.007366 0
1.243580 0.003292 0
1.240137 0.013349 0
1.226474 0.022274 0
1.204091 0.029577 0
1.174925 0.034866 0
1.141207 0.037874 0
1.105327 0.038455 0
1.069700 0.036575 0
1.036627 0.032319 0
1.008122 0.025931 0
0.985695 0.017874 0
0.970165 0.008894 0
0.961609 0.000157 0
0.959576 -0.007220 0
0.963237 -0.012936 0
0.971642 -0.017296 0
0.983991 -0.020666 0
0.999703 -0.023338 0
1.018392 -0.025456 0
1.039774 -0.026976 0
1.063470 -0.027644 0
1.088793 -0.027030 0
1.114577 -0.024654 0
1.139134 -0.020193 0
1.160358 -0.013741 0
1.176005 -0.005928 0
1.184158 0.002416 0
1.183858 0.010699 0
1.175401 0.018439 0
1.159732 0.025027 0
1.138381 0.029751 0
1.113439 0.031895 0
1.087431 0.030916 0
1.063017 0.026720 0
1.042537 0.019814 0
1.027506 0.012583 0
1.017891 0.008854 0
1.000000 -0.000001 0
1.002846 -0.010407 0
1.011153 -0.021475 0
1.025282 -0.033416 0
1.045911 -0.046138 0
1.073781 -0.059052 0
1.109308 -0.070864 0
1.151896 -0.079593 0
1.199378 -0.082864 0
1.246284 -0.079733 0
1.288271 -0.071723 0
1.323567 -0.061229 0
1.352149 -0.050153 0
1.374768 -0.039521 0
1.392319 -0.029560 0
1.405413 -0.019960 0
1.414129 -0.010231 0
1.418045 -0.000069 0
1.416638 0.010468 0
1.409563 0.020984 0
1.396869 0.030866 0
1.379065 0.039452 0
1.357044 0.046163 0
1.331976 0.050561 0
1.305200 0.052362 0
1.278143 0.051427 0
1.252243 0.047748 0
1.228887 0.041420 0
1.209355 0.032609 0
1.194811 0.021528 0
1.186332 0.008483 0
1.184954 -0.005967 0
1.191612 -0.020710 0
1.206586 -0.033881 0
1.228873 -0.043112 0
1.255942 -0.046244 0
1.283954 -0.042198 0
1.308443 -0.031553 0
1.325439 -0.016434 0
1.332701 0.000412 0
1.330237 0.016771 0
1.319168 0.031287 0
1.301041 0.043196 0
1.277539 0.052158 0
1.250306 0.058116 0
1.220862 0.061152 0
1.190596 0.061392 0
1.160781 0.058953 0
1.132585 0.053928 0
1.107074 0.046417 0
1.085152 0.036592 0
1.067502 0.024770 0
1.054544 0.011426 0
1.046606 -0.002884 0
1.044218 -0.017528 0
1.047787 -0.031777 0
1.057444 -0.044817 0
1.073076 -0.055790 0
1.094430 -0.063790 0
1.121040 -0.067770 0
1.151908 -0.066554 0
1.185158 -0.059147 0
1.217878 -0.045300 0
1.246254 -0.026103 0
1.266189 -0.004257 0
1.274874 0.017110 0
1.272370 0.036049 0
1.260137 0.051551 0
1.240074 0.062885 0
1.214341 0.069599 0
1.185194 0.071508 0
1.154816 0.068700 0
1.125161 0.061578 0
1.097781 0.050932 0
1.073709 0.037956 0
1.053440 0.024086 0
1.037087 0.010588 0
1.024797 -0.001629 0
1.016710 -0.012068 0
1.012650 -0.020758 0
1.012351 -0.028066 0
1.015689 -0.034407 0
1.022785 -0.040079 0
1.033931 -0.045087 0
1.049350 -0.049030 0
1.068920 -0.051120 0
1.091984 -0.050356 0
1.117297 -0.045796 0
1.143054 -0.036888 0
1.166941 -0.023818 0
1.186356 -0.007871 0
1.199085 0.008738 0
1.204245 0.024106 0
1.202510 0.036999 0
1.195096 0.046272 0
1.183547 0.050929 0
1.169535 0.050401 0
1.154637 0.044873 0
1.140160 0.035490 0
1.126990 0.024625 0
1.117375 0.018544 0
1.000000 -0.000002 0
1.002440 -0.015737 0
1.009905 -0.032395 0
1.023036 -0.050604 0
1.042996 -0.070552 0
1.071359 -0.091620 0
1.109733 -0.111843 0
1.158643 -0.127754 0
1.216904 -0.133582 0
1.272364 -0.126821 0
1.318185 -0.111695 0
1.353708 -0.093463 0
1.380621 -0.075490 0
1.401041 -0.059209 0
1.416853 -0.044640 0
1.429268 -0.030887 0
1.438425 -0.016757 0
1.443329 -0.001552 0
1.442689 0.014624 0
1.435690 0.031034 0
1.422202 0.046556 0
1.402813 0.060045 0
1.378601 0.070567 0
1.350927 0.077462 0
1.321297 0.080328 0
1.291276 0.078990 0
1.262412 0.073481 0
1.236152 0.063995 0
1.213776 0.050823 0
1.196391 0.034250 0
1.185032 0.014502 0
1.180875 -0.007937 0
1.185315 -0.031560 0
1.199131 -0.053413 0
1.221757 -0.069587 0
1.251193 -0.076336 0
1.284054 -0.071364 0
1.315561 -0.054960 0
1.340161 -0.030463 0
1.353389 -0.003069 0
1.354229 0.022997 0
1.344644 0.045613 0
1.326956 0.063824 0
1.303394 0.077336 0
1.275906 0.086246 0
1.246113 0.090823 0
1.215361 0.091361 0
1.184780 0.088115 0
1.155345 0.081308 0
1.127901 0.071184 0
1.103166 0.058064 0
1.081702 0.042395 0
1.063884 0.024719 0
1.049853 0.005633 0
1.039545 -0.014156 0
1.032988 -0.033775 0
1.030564 -0.052314 0
1.033024 -0.068965 0
1.041562 -0.082884 0
1.057351 -0.092771 0
1.080746 -0.096709 0
1.110804 -0.092579 0
1.145218 -0.078885 0
1.180506 -0.055676 0
1.212288 -0.025327 0
1.235808 0.007168 0
1.247974 0.037011 0
1.249372 0.061874 0
1.241555 0.080662 0
1.226400 0.092754 0
1.205880 0.097981 0
1.181889 0.096608 0
1.156104 0.089354 0
1.129911 0.077383 0
1.104407 0.062215 0
1.080463 0.045517 0
1.058724 0.028799 0
1.039489 0.013156 0
1.022809 -0.000791 0
1.008647 -0.012939 0
0.997134 -0.023708 0
0.988934 -0.033775 0
0.985096 -0.043701 0
0.986718 -0.053545 0
0.994512 -0.062638 0
1.008481 -0.069669 0
1.027917 -0.073036 0
1.051583 -0.071267 0
1.077916 -0.063389 0
1.105156 -0.049235 0
1.131358 -0.029733 0
1.154300 -0.007195 0
1.171759 0.015010 0
1.182902 0.034171 0
1.188240 0.048710 0
1.188578 0.057452 0
1.184830 0.059823 0
1.177933 0.056091 0
1.168869 0.047458 0
1.158752 0.035365 0
1.150165 0.028064 0
1.000000 -0.000003 0
1.001903 -0.020322 0
1.007882 -0.042075 0
1.018851 -0.066508 0
1.036574 -0.094458 0
1.063833 -0.125783 0
1.104425 -0.158143 0
1.161731 -0.186762 0
1.240063 -0.196585 0
1.306428 -0.181017 0
1.352454 -0.153068 0
1.382876 -0.123661 0
1.403011 -0.097483 0
1.416882 -0.075751 0
1.427669 -0.057786 0
1.437622 -0.041533 0
1.447278 -0.024293 0
1.454705 -0.004335 0
1.456499 0.018105 0
1.450758 0.041468 0
1.437098 0.063739 0
1.416304 0.083049 0
1.389768 0.098044 0
1.359111 0.107861 0
1.326043 0.112008 0
1.292317 0.110309 0
1.259660 0.102871 0
1.229646 0.090057 0
1.203563 0.072372 0
1.182346 0.050276 0
1.166610 0.024004 0
1.156718 -0.006245 0
1.153494 -0.038962 0
1.158477 -0.070321 0
1.172359 -0.095174 0
1.195363 -0.108543 0
1.226799 -0.106566 0
1.263725 -0.087659 0
1.300178 -0.054262 0
1.328114 -0.013656 0
1.341049 0.025516 0
1.339598 0.058560 0
1.327215 0.084445 0
1.306980 0.103208 0
1.281430 0.115396 0
1.252557 0.121694 0
1.221908 0.122724 0
1.190701 0.118968 0
1.159936 0.110805 0
1.130460 0.098593 0
1.102976 0.082790 0
1.077929 0.064052 0
1.055294 0.043276 0
1.034417 0.021456 0
1.014244 -0.000661 0
0.994202 -0.022793 0
0.975502 -0.044850 0
0.961516 -0.066784 0
0.955962 -0.088113 0
0.961306 -0.106951 0
0.977919 -0.120005 0
1.004444 -0.123617 0
1.038471 -0.115002 0
1.076949 -0.093172 0
1.116277 -0.059558 0
1.152148 -0.018577 0
1.179483 0.022486 0
1.195762 0.057971 0
1.201769 0.085857 0
1.198883 0.105274 0
1.188718 0.116019 0
1.172905 0.118476 0
1.152974 0.113556 0
1.130292 0.102629 0
1.106049 0.087404 0
1.081215 0.069769 0
1.056448 0.051562 0
1.032046 0.034285 0
1.008118 0.018772 0
0.985086 0.004914 0
0.964036 -0.008356 0
0.946722 -0.022372 0
0.935268 -0.037867 0
0.931297 -0.054507 0
0.935293 -0.070796 0
0.946673 -0.084529 0
0.964228 -0.093461 0
0.986522 -0.095798 0
1.012111 -0.090464 0
1.039609 -0.077263 0
1.067656 -0.057018 0
1.094784 -0.031666 0
1.119149 -0.004498 0
1.138701 0.020517 0
1.152774 0.040593 0
1.161583 0.054338 0
1.165511 0.061046 0
1.165124 0.060833 0
1.161224 0.054670 0
1.154904 0.043329 0
1.148037 0.036139 0
1.000000 -0.000004 0
1.001072 -0.023628 0
1.004570 -0.049346 0
1.011505 -0.079294 0
1.024036 -0.115529 0
1.046194 -0.159468 0
1.084960 -0.209738 0
1.149944 -0.263391 0
1.263465 -0.278281 0
1.334296 -0.239214 0
1.365861 -0.188141 0
1.378873 -0.144016 0
1.383073 -0.109494 0
1.383115 -0.083866 0
1.382844 -0.065380 0
1.385956 -0.050498 0
1.394609 -0.033841 0
1.406922 -0.010776 0
1.415563 0.018567 0
1.414986 0.050432 0
1.404518 0.081007 0
1.385478 0.107371 0
1.359635 0.127756 0
1.328711 0.141184 0
1.294444 0.147117 0
1.258663 0.145371 0
1.223245 0.136153 0
1.189889 0.120094 0
1.159759 0.098127 0
1.133269 0.071207 0
1.110201 0.040134 0
1.089625 0.005184 0
1.069883 -0.033316 0
1.052690 -0.072278 0
1.043713 -0.106475 0
1.048488 -0.130776 0
1.069953 -0.139724 0
1.106912 -0.128339 0
1.154123 -0.094852 0
1.202711 -0.043940 0
1.241438 0.011513 0
1.262317 0.059446 0
1.267811 0.096441 0
1.261642 0.123120 0
1.246841 0.140667 0
1.225813 0.150344 0
1.200480 0.153215 0
1.172403 0.150085 0
1.142877 0.141547 0
1.112982 0.128142 0
1.083479 0.110595 0
1.054468 0.090077 0
1.024987 0.068233 0
0.993294 0.046684 0
0.958434 0.026061 0
0.922137 0.004970 0
0.889057 -0.019625 0
0.865166 -0.049422 0
0.854842 -0.082671 0
0.858529 -0.114725 0
0.874343 -0.139846 0
0.899844 -0.153130 0
0.932713 -0.151390 0
0.970712 -0.133482 0
1.011464 -0.100526 0
1.052202 -0.056038 0
1.089210 -0.006602 0
1.117607 0.039589 0
1.135971 0.077540 0
1.144839 0.105806 0
1.145232 0.123959 0
1.138375 0.132352 0
1.125530 0.131967 0
1.107875 0.124307 0
1.086409 0.111293 0
1.061838 0.095118 0
1.034587 0.077968 0
1.005072 0.061486 0
0.974257 0.046168 0
0.944125 0.031141 0
0.917515 0.014655 0
0.897202 -0.005009 0
0.885031 -0.028278 0
0.881588 -0.053573 0
0.886191 -0.078017 0
0.897506 -0.098606 0
0.914123 -0.112887 0
0.934794 -0.119151 0
0.958450 -0.116477 0
0.984134 -0.104781 0
1.010918 -0.084908 0
1.037823 -0.058688 0
1.063719 -0.028907 0
1.086948 0.000546 0
1.105744 0.025828 0
1.119615 0.044716 0
1.128552 0.056283 0
1.132802 0.060379 0
1.132912 0.057680 0
1.129725 0.048554 0
1.124547 0.042519 0
1.000000 -0.000005 0
0.999896 -0.024901 0
0.999753 -0.052508 0
1.000270 -0.085972 0
1.003251 -0.129143 0
1.012900 -0.186703 0
1.038778 -0.261892 0
1.100418 -0.365269 0
1.261836 -0.380939 0
1.307762 -0.283411 0
1.293246 -0.197641 0
1.272348 -0.140871 0
1.251739 -0.101724 0
1.231147 -0.075522 0
1.212543 -0.060628 0
1.200783 -0.053300 0
1.201842 -0.045262 0
1.218478 -0.025293 0
1.243307 0.010037 0
1.258603 0.052509 0
1.260949 0.093243 0
1.253308 0.127928 0
1.237565 0.154806 0
1.214902 0.173048 0
1.186556 0.182055 0
1.154169 0.181507 0
1.119762 0.171646 0
1.085161 0.153546 0
1.050690 0.128996 0
1.014058 0.099838 0
0.971896 0.067652 0
0.923968 0.034076 0
0.875193 -0.002025 0
0.833584 -0.044152 0
0.809880 -0.090973 0
0.809380 -0.134781 0
0.830972 -0.164989 0
0.871226 -0.171829 0
0.925800 -0.150061 0
0.989046 -0.100973 0
1.052739 -0.034092 0
1.104751 0.032186 0
1.138007 0.085119 0
1.155598 0.124176 0
1.160517 0.151222 0
1.155210 0.168054 0
1.141768 0.176133 0
1.121994 0.176569 0
1.097369 0.170223 0
1.068857 0.157991 0
1.036564 0.141304 0
0.999534 0.122545 0
0.956533 0.104451 0
0.908130 0.088011 0
0.858630 0.070499 0
0.815449 0.046588 0
0.785390 0.012125 0
0.771060 -0.032566 0
0.770815 -0.081473 0
0.781135 -0.126450 0
0.799139 -0.161319 0
0.823223 -0.181987 0
0.852560 -0.185869 0
0.886397 -0.171922 0
0.923597 -0.141047 0
0.962506 -0.096322 0
1.000929 -0.042919 0
1.035230 0.011211 0
1.061491 0.058626 0
1.079008 0.096013 0
1.087966 0.122483 0
1.088967 0.138179 0
1.082773 0.144056 0
1.070117 0.141750 0
1.051564 0.133443 0
1.027516 0.121591 0
0.998499 0.108328 0
0.965759 0.094615 0
0.931767 0.079719 0
0.900087 0.061655 0
0.874415 0.038566 0
0.857301 0.010112 0
0.849260 -0.022254 0
0.849202 -0.055667 0
0.855465 -0.086715 0
0.866550 -0.112462 0
0.881370 -0.130748 0
0.899195 -0.140125 0
0.919484 -0.139803 0
0.941729 -0.129729 0
0.965350 -0.110706 0
0.989650 -0.084465 0
1.013788 -0.053620 0
1.036734 -0.021505 0
1.056881 0.007930 0
1.072894 0.031533 0
1.084402 0.047862 0
1.091345 0.056477 0
1.093982 0.057751 0
1.092887 0.051698 0
1.089108 0.047418 0
1.000000 -0.000006 0
0.998480 -0.023388 0
0.993834 -0.049718 0
0.985892 -0.082789 0
0.974756 -0.128156 0
0.961854 -0.194993 0
0.953391 -0.297255 0
0.971219 -0.486451 0
1.127593 -0.485625 0
1.112882 -0.270620 0
1.007513 -0.152725 0
0.948050 -0.102509 0
0.906404 -0.068294 0
0.868303 -0.044672 0
0.828595 -0.035019 0
0.795746 -0.039799 0
0.784378 -0.051539 0
0.805529 -0.052244 0
0.856024 -0.021561 0
0.913603 0.032786 0
0.953769 0.086298 0
0.977768 0.130751 0
0.989404 0.166158 0
0.988832 0.192190 0
0.976251 0.207850 0
0.952244 0.212166 0
0.917250 0.205163 0
0.871152 0.189170 0
0.813937 0.169235 0
0.747777 0.150006 0
0.678890 0.130227 0
0.617448 0.101888 0
0.575010 0.057069 0
0.557675 -0.006965 0
0.562260 -0.082270 0
0.582949 -0.151867 0
0.615800 -0.201570 0
0.659466 -0.223167 0
0.713708 -0.212672 0
0.777511 -0.170880 0
0.847813 -0.104194 0
0.917869 -0.025824 0
0.975416 0.045592 0
1.015661 0.100609 0
1.040851 0.141054 0
1.052863 0.169091 0
1.053382 0.186429 0
1.043897 0.194482 0
1.025448 0.194683 0
0.998297 0.188946 0
0.961890 0.179918 0
0.915872 0.170109 0
0.862370 0.159639 0
0.807806 0.144590 0
0.761494 0.118746 0
0.731066 0.078214 0
0.718741 0.024767 0
0.721093 -0.034845 0
0.731671 -0.092744 0
0.746112 -0.143049 0
0.762752 -0.181933 0
0.781687 -0.206549 0
0.803795 -0.214564 0
0.829856 -0.204519 0
0.859913 -0.176633 0
0.893063 -0.133369 0
0.927669 -0.079325 0
0.961534 -0.020973 0
0.990794 0.033763 0
1.013006 0.079331 0
1.027474 0.114001 0
1.034079 0.137546 0
1.032962 0.150818 0
1.024323 0.155516 0
1.008395 0.153894 0
0.985672 0.148184 0
0.957409 0.139725 0
0.926083 0.128218 0
0.895289 0.111840 0
0.868837 0.088493 0
0.849517 0.057439 0
0.838370 0.020146 0
0.834841 -0.020179 0
0.837266 -0.059777 0
0.843900 -0.095364 0
0.853487 -0.124510 0
0.865321 -0.145529 0
0.879116 -0.157262 0
0.894805 -0.159008 0
0.912321 -0.150644 0
0.931434 -0.132825 0
0.951682 -0.107121 0
0.972390 -0.075986 0
0.992701 -0.042542 0
1.011554 -0.010326 0
1.027447 0.017201 0
1.039524 0.037839 0
1.047463 0.050806 0
1.051286 0.056144 0
1.051384 0.053434 0
1.048732 0.051091 0
1.000000 -0.000007 0
0.997118 -0.018740 0
0.988066 -0.039919 0
0.971469 -0.066891 0
0.944640 -0.105102 0
0.902750 -0.165336 0
0.836933 -0.271257 0
0.731516 -0.539471 0
0.545957 -0.522600 0
0.000295 -0.163329 0
0.395527 -0.032809 0
0.324246 -0.039762 0
0.305371 -0.021978 0
0.295026 0.002285 0
0.277526 0.011926 0
0.261589 -0.009087 0
0.264545 -0.055049 0
0.299539 -0.096942 0
0.368354 -0.098041 0
0.461918 -0.045240 0
0.552050 0.029075 0
0.618418 0.092289 0
0.663147 0.143740 0
0.687642 0.186199 0
0.691466 0.218642 0
0.674323 0.240510 0
0.636291 0.252742 0
0.579292 0.256863 0
0.509954 0.252375 0
0.441436 0.234889 0
0.390090 0.197983 0
0.367541 0.137956 0
0.375053 0.057748 0
0.403862 -0.031402 0
0.438550 -0.116245 0
0.471215 -0.188320 0
0.502274 -0.241507 0
0.535804 -0.269738 0
0.576517 -0.268107 0
0.627431 -0.235079 0
0.688379 -0.174451 0
0.755963 -0.095418 0
0.822637 -0.012674 0
0.876864 0.058740 0
0.915914 0.114018 0
0.940724 0.155520 0
0.952115 0.185097 0
0.950767 0.204502 0
0.937014 0.215822 0
0.910932 0.221549 0
0.873254 0.223730 0
0.827155 0.222066 0
0.779501 0.212519 0
0.739384 0.188890 0
0.713986 0.147242 0
0.705162 0.089344 0
0.709688 0.022101 0
0.721845 -0.045494 0
0.736259 -0.106490 0
0.749951 -0.157530 0
0.762056 -0.196893 0
0.773330 -0.223029 0
0.785597 -0.234038 0
0.800955 -0.228040 0
0.820823 -0.204253 0
0.845294 -0.164077 0
0.873171 -0.111389 0
0.902477 -0.051914 0
0.930520 0.007154 0
0.953784 0.059334 0
0.970682 0.101410 0
0.980400 0.132691 0
0.982514 0.153813 0
0.976862 0.166317 0
0.963669 0.172095 0
0.943908 0.172578 0
0.919686 0.167917 0
0.894223 0.156735 0
0.871144 0.136965 0
0.853346 0.107427 0
0.842173 0.069034 0
0.837412 0.024789 0
0.837915 -0.021148 0
0.842108 -0.064724 0
0.848536 -0.102934 0
0.856202 -0.133879 0
0.864630 -0.156373 0
0.873818 -0.169605 0
0.884087 -0.173003 0
0.895837 -0.166352 0
0.909283 -0.150060 0
0.924300 -0.125415 0
0.940398 -0.094632 0
0.956818 -0.060662 0
0.972629 -0.026807 0
0.986689 0.003572 0
0.997816 0.027854 0
1.005466 0.044723 0
1.009495 0.053839 0
1.010195 0.054261 0
1.008500 0.053717 0
1.000000 -0.000008 0
0.996203 -0.011458 0
0.984190 -0.024067 0
0.961760 -0.039360 0
0.924304 -0.059435 0
0.862602 -0.087285 0
0.757057 -0.126022 0
0.564524 -0.195475 0
0.074162 0.000179 0
-0.529459 0.121621 0
0.000000 -0.000042 0
-0.032833 -0.022949 0
-0.050529 -0.039075 0
-0.070205 -0.016829 0
-0.092692 -0.001585 0
-0.104716 -0.026822 0
-0.092951 -0.089493 0
-0.057216 -0.156056 0
0.000930 -0.183945 0
0.086694 -0.150914 0
0.193364 -0.070205 0
0.284411 0.019650 0
0.350043 0.096931 0
0.391088 0.163871 0
0.407900 0.221170 0
0.401485 0.267342 0
0.375508 0.300197 0
0.338414 0.315511 0
0.303550 0.307095 0
0.285139 0.269873 0
0.291866 0.204124 0
0.322899 0.116924 0
0.368762 0.020748 0
0.413515 -0.070460 0
0.449169 -0.149622 0
0.474195 -0.215591 0
0.490588 -0.266159 0
0.503448 -0.297411 0
0.519855 -0.304300 0
0.546510 -0.282744 0
0.586853 -0.232727 0
0.639535 -0.160084 0
0.699218 -0.075310 0
0.756408 0.007330 0
0.801594 0.077192 0
0.833041 0.132889 0
0.850582 0.176384 0
0.854230 0.209581 0
0.844238 0.234518 0
0.821787 0.252707 0
0.790206 0.263696 0
0.755805 0.263864 0
0.726797 0.247413 0
0.710010 0.210107 0
0.707777 0.152971 0
0.717701 0.082516 0
0.734955 0.008087 0
0.753854 -0.061414 0
0.770561 -0.120848 0
0.783084 -0.168845 0
0.790807 -0.205311 0
0.794494 -0.230089 0
0.796273 -0.242188 0