# vtk DataFile Version 2.0
generated by CFD-lab course output (written by Tobias Neckel) 
ASCII

DATASET STRUCTURED_GRID
DIMENSIONS  101 21 1 
POINTS 2121 float

0.000000 0.000000 0
0.100000 0.000000 0
0.200000 0.000000 0
0.300000 0.000000 0
0.400000 0.000000 0
0.500000 0.000000 0
0.600000 0.000000 0
0.700000 0.000000 0
0.800000 0.000000 0
0.900000 0.000000 0
1.000000 0.000000 0
1.100000 0.000000 0
1.200000 0.000000 0
1.300000 0.000000 0
1.400000 0.000000 0
1.500000 0.000000 0
1.600000 0.000000 0
1.700000 0.000000 0
1.800000 0.000000 0
1.900000 0.000000 0
2.000000 0.000000 0
2.100000 0.000000 0
2.200000 0.000000 0
2.300000 0.000000 0
2.400000 0.000000 0
2.500000 0.000000 0
2.600000 0.000000 0
2.700000 0.000000 0
2.800000 0.000000 0
2.900000 0.000000 0
3.000000 0.000000 0
3.100000 0.000000 0
3.200000 0.000000 0
3.300000 0.000000 0
3.400000 0.000000 0
3.500000 0.000000 0
3.600000 0.000000 0
3.700000 0.000000 0
3.800000 0.000000 0
3.900000 0.000000 0
4.000000 0.000000 0
4.100000 0.000000 0
4.200000 0.000000 0
4.300000 0.000000 0
4.400000 0.000000 0
4.500000 0.000000 0
4.600000 0.000000 0
4.700000 0.000000 0
4.800000 0.000000 0
4.900000 0.000000 0
5.000000 0.000000 0
5.100000 0.000000 0
5.200000 0.000000 0
5.300000 0.000000 0
5.400000 0.000000 0
5.500000 0.000000 0
5.600000 0.000000 0
5.700000 0.000000 0
5.800000 0.000000 0
5.900000 0.000000 0
6.000000 0.000000 0
6.100000 0.000000 0
6.200000 0.000000 0
6.300000 0.000000 0
6.400000 0.000000 0
6.500000 0.000000 0
6.600000 0.000000 0
6.700000 0.000000 0
6.800000 0.000000 0
6.900000 0.000000 0
7.000000 0.000000 0
7.100000 0.000000 0
7.200000 0.000000 0
7.300000 0.000000 0
7.400000 0.000000 0
7.500000 0.000000 0
7.600000 0.000000 0
7.700000 0.000000 0
7.800000 0.000000 0
7.900000 0.000000 0
8.000000 0.000000 0
8.100000 0.000000 0
8.200000 0.000000 0
8.300000 0.000000 0
8.400000 0.000000 0
8.500000 0.000000 0
8.600000 0.000000 0
8.700000 0.000000 0
8.800000 0.000000 0
8.900000 0.000000 0
9.000000 0.000000 0
9.100000 0.000000 0
9.200000 0.000000 0
9.300000 0.000000 0
9.400000 0.000000 0
9.500000 0.000000 0
9.600000 0.000000 0
9.700000 0.000000 0
9.800000 0.000000 0
9.900000 0.000000 0
10.000000 0.000000 0
0.000000 0.100000 0
0.100000 0.100000 0
0.200000 0.100000 0
0.300000 0.100000 0
0.400000 0.100000 0
0.500000 0.100000 0
0.600000 0.100000 0
0.700000 0.100000 0
0.800000 0.100000 0
0.900000 0.100000 0
1.000000 0.100000 0
1.100000 0.100000 0
1.200000 0.100000 0
1.300000 0.100000 0
1.400000 0.100000 0
1.500000 0.100000 0
1.600000 0.100000 0
1.700000 0.100000 0
1.800000 0.100000 0
1.900000 0.100000 0
2.000000 0.100000 0
2.100000 0.100000 0
2.200000 0.100000 0
2.300000 0.100000 0
2.400000 0.100000 0
2.500000 0.100000 0
2.600000 0.100000 0
2.700000 0.100000 0
2.800000 0.100000 0
2.900000 0.100000 0
3.000000 0.100000 0
3.100000 0.100000 0
3.200000 0.100000 0
3.300000 0.100000 0
3.400000 0.100000 0
3.500000 0.100000 0
3.600000 0.100000 0
3.700000 0.100000 0
3.800000 0.100000 0
3.900000 0.100000 0
4.000000 0.100000 0
4.100000 0.100000 0
4.200000 0.100000 0
4.300000 0.100000 0
4.400000 0.100000 0
4.500000 0.100000 0
4.600000 0.100000 0
4.700000 0.100000 0
4.800000 0.100000 0
4.900000 0.100000 0
5.000000 0.100000 0
5.100000 0.100000 0
5.200000 0.100000 0
5.300000 0.100000 0
5.400000 0.100000 0
5.500000 0.100000 0
5.600000 0.100000 0
5.700000 0.100000 0
5.800000 0.100000 0
5.900000 0.100000 0
6.000000 0.100000 0
6.100000 0.100000 0
6.200000 0.100000 0
6.300000 0.100000 0
6.400000 0.100000 0
6.500000 0.100000 0
6.600000 0.100000 0
6.700000 0.100000 0
6.800000 0.100000 0
6.900000 0.100000 0
7.000000 0.100000 0
7.100000 0.100000 0
7.200000 0.100000 0
7.300000 0.100000 0
7.400000 0.100000 0
7.500000 0.100000 0
7.600000 0.100000 0
7.700000 0.100000 0
7.800000 0.100000 0
7.900000 0.100000 0
8.000000 0.100000 0
8.100000 0.100000 0
8.200000 0.100000 0
8.300000 0.100000 0
8.400000 0.100000 0
8.500000 0.100000 0
8.600000 0.100000 0
8.700000 0.100000 0
8.800000 0.100000 0
8.900000 0.100000 0
9.000000 0.100000 0
9.100000 0.100000 0
9.200000 0.100000 0
9.300000 0.100000 0
9.400000 0.100000 0
9.500000 0.100000 0
9.600000 0.100000 0
9.700000 0.100000 0
9.800000 0.100000 0
9.900000 0.100000 0
10.000000 0.100000 0
0.000000 0.200000 0
0.100000 0.200000 0
0.200000 0.200000 0
0.300000 0.200000 0
0.400000 0.200000 0
0.500000 0.200000 0
0.600000 0.200000 0
0.700000 0.200000 0
0.800000 0.200000 0
0.900000 0.200000 0
1.000000 0.200000 0
1.100000 0.200000 0
1.200000 0.200000 0
1.300000 0.200000 0
1.400000 0.200000 0
1.500000 0.200000 0
1.600000 0.200000 0
1.700000 0.200000 0
1.800000 0.200000 0
1.900000 0.200000 0
2.000000 0.200000 0
2.100000 0.200000 0
2.200000 0.200000 0
2.300000 0.200000 0
2.400000 0.200000 0
2.500000 0.200000 0
2.600000 0.200000 0
2.700000 0.200000 0
2.800000 0.200000 0
2.900000 0.200000 0
3.000000 0.200000 0
3.100000 0.200000 0
3.200000 0.200000 0
3.300000 0.200000 0
3.400000 0.200000 0
3.500000 0.200000 0
3.600000 0.200000 0
3.700000 0.200000 0
3.800000 0.200000 0
3.900000 0.200000 0
4.000000 0.200000 0
4.100000 0.200000 0
4.200000 0.200000 0
4.300000 0.200000 0
4.400000 0.200000 0
4.500000 0.200000 0
4.600000 0.200000 0
4.700000 0.200000 0
4.800000 0.200000 0
4.900000 0.200000 0
5.000000 0.200000 0
5.100000 0.200000 0
5.200000 0.200000 0
5.300000 0.200000 0
5.400000 0.200000 0
5.500000 0.200000 0
5.600000 0.200000 0
5.700000 0.200000 0
5.800000 0.200000 0
5.900000 0.200000 0
6.000000 0.200000 0
6.100000 0.200000 0
6.200000 0.200000 0
6.300000 0.200000 0
6.400000 0.200000 0
6.500000 0.200000 0
6.600000 0.200000 0
6.700000 0.200000 0
6.800000 0.200000 0
6.900000 0.200000 0
7.000000 0.200000 0
7.100000 0.200000 0
7.200000 0.200000 0
7.300000 0.200000 0
7.400000 0.200000 0
7.500000 0.200000 0
7.600000 0.200000 0
7.700000 0.200000 0
7.800000 0.200000 0
7.900000 0.200000 0
8.000000 0.200000 0
8.100000 0.200000 0
8.200000 0.200000 0
8.300000 0.200000 0
8.400000 0.200000 0
8.500000 0.200000 0
8.600000 0.200000 0
8.700000 0.200000 0
8.800000 0.200000 0
8.900000 0.200000 0
9.000000 0.200000 0
9.100000 0.200000 0
9.200000 0.200000 0
9.300000 0.200000 0
9.400000 0.200000 0
9.500000 0.200000 0
9.600000 0.200000 0
9.700000 0.200000 0
9.800000 0.200000 0
9.900000 0.200000 0
10.000000 0.200000 0
0.000000 0.300000 0
0.100000 0.300000 0
0.200000 0.300000 0
0.300000 0.300000 0
0.400000 0.300000 0
0.500000 0.300000 0
0.600000 0.300000 0
0.700000 0.300000 0
0.800000 0.300000 0
0.900000 0.300000 0
1.000000 0.300000 0
1.100000 0.300000 0
1.200000 0.300000 0
1.300000 0.300000 0
1.400000 0.300000 0
1.500000 0.300000 0
1.600000 0.300000 0
1.700000 0.300000 0
1.800000 0.300000 0
1.900000 0.300000 0
2.000000 0.300000 0
2.100000 0.300000 0
2.200000 0.300000 0
2.300000 0.300000 0
2.400000 0.300000 0
2.500000 0.300000 0
2.600000 0.300000 0
2.700000 0.300000 0
2.800000 0.300000 0
2.900000 0.300000 0
3.000000 0.300000 0
3.100000 0.300000 0
3.200000 0.300000 0
3.300000 0.300000 0
3.400000 0.300000 0
3.500000 0.300000 0
3.600000 0.300000 0
3.700000 0.300000 0
3.800000 0.300000 0
3.900000 0.300000 0
4.000000 0.300000 0
4.100000 0.300000 0
4.200000 0.300000 0
4.300000 0.300000 0
4.400000 0.300000 0
4.500000 0.300000 0
4.600000 0.300000 0
4.700000 0.300000 0
4.800000 0.300000 0
4.900000 0.300000 0
5.000000 0.300000 0
5.100000 0.300000 0
5.200000 0.300000 0
5.300000 0.300000 0
5.400000 0.300000 0
5.500000 0.300000 0
5.600000 0.300000 0
5.700000 0.300000 0
5.800000 0.300000 0
5.900000 0.300000 0
6.000000 0.300000 0
6.100000 0.300000 0
6.200000 0.300000 0
6.300000 0.300000 0
6.400000 0.300000 0
6.500000 0.300000 0
6.600000 0.300000 0
6.700000 0.300000 0
6.800000 0.300000 0
6.900000 0.300000 0
7.000000 0.300000 0
7.100000 0.300000 0
7.200000 0.300000 0
7.300000 0.300000 0
7.400000 0.300000 0
7.500000 0.300000 0
7.600000 0.300000 0
7.700000 0.300000 0
7.800000 0.300000 0
7.900000 0.300000 0
8.000000 0.300000 0
8.100000 0.300000 0
8.200000 0.300000 0
8.300000 0.300000 0
8.400000 0.300000 0
8.500000 0.300000 0
8.600000 0.300000 0
8.700000 0.300000 0
8.800000 0.300000 0
8.900000 0.300000 0
9.000000 0.300000 0
9.100000 0.300000 0
9.200000 0.300000 0
9.300000 0.300000 0
9.400000 0.300000 0
9.500000 0.300000 0
9.600000 0.300000 0
9.700000 0.300000 0
9.800000 0.300000 0
9.900000 0.300000 0
10.000000 0.300000 0
0.000000 0.400000 0
0.100000 0.400000 0
0.200000 0.400000 0
0.300000 0.400000 0
0.400000 0.400000 0
0.500000 0.400000 0
0.600000 0.400000 0
0.700000 0.400000 0
0.800000 0.400000 0
0.900000 0.400000 0
1.000000 0.400000 0
1.100000 0.400000 0
1.200000 0.400000 0
1.300000 0.400000 0
1.400000 0.400000 0
1.500000 0.400000 0
1.600000 0.400000 0
1.700000 0.400000 0
1.800000 0.400000 0
1.900000 0.400000 0
2.000000 0.400000 0
2.100000 0.400000 0
2.200000 0.400000 0
2.300000 0.400000 0
2.400000 0.400000 0
2.500000 0.400000 0
2.600000 0.400000 0
2.700000 0.400000 0
2.800000 0.400000 0
2.900000 0.400000 0
3.000000 0.400000 0
3.100000 0.400000 0
3.200000 0.400000 0
3.300000 0.400000 0
3.400000 0.400000 0
3.500000 0.400000 0
3.600000 0.400000 0
3.700000 0.400000 0
3.800000 0.400000 0
3.900000 0.400000 0
4.000000 0.400000 0
4.100000 0.400000 0
4.200000 0.400000 0
4.300000 0.400000 0
4.400000 0.400000 0
4.500000 0.400000 0
4.600000 0.400000 0
4.700000 0.400000 0
4.800000 0.400000 0
4.900000 0.400000 0
5.000000 0.400000 0
5.100000 0.400000 0
5.200000 0.400000 0
5.300000 0.400000 0
5.400000 0.400000 0
5.500000 0.400000 0
5.600000 0.400000 0
5.700000 0.400000 0
5.800000 0.400000 0
5.900000 0.400000 0
6.000000 0.400000 0
6.100000 0.400000 0
6.200000 0.400000 0
6.300000 0.400000 0
6.400000 0.400000 0
6.500000 0.400000 0
6.600000 0.400000 0
6.700000 0.400000 0
6.800000 0.400000 0
6.900000 0.400000 0
7.000000 0.400000 0
7.100000 0.400000 0
7.200000 0.400000 0
7.300000 0.400000 0
7.400000 0.400000 0
7.500000 0.400000 0
7.600000 0.400000 0
7.700000 0.400000 0
7.800000 0.400000 0
7.900000 0.400000 0
8.000000 0.400000 0
8.100000 0.400000 0
8.200000 0.400000 0
8.300000 0.400000 0
8.400000 0.400000 0
8.500000 0.400000 0
8.600000 0.400000 0
[...]
POINT_DATA 2121 

VECTORS velocity float
0.500000 0.000000 0
0.000002 0.000000 0
0.000005 0.000000 0
0.000011 0.000000 0
0.000022 0.000000 0
0.000039 0.000000 0
0.000067 0.000000 0
0.000108 0.000000 0
0.000149 0.000000 0
0.000200 0.000000 0
0.000253 0.000000 0
0.000298 0.000000 0
0.000325 0.000000 0
0.000319 0.000000 0
0.000264 0.000000 0
0.000147 0.000000 0
-0.000039 0.000000 0
-0.000298 0.000000 0
-0.000623 0.000000 0
-0.000997 0.000000 0
-0.001380 0.000000 0
-0.001731 0.000000 0
-0.001968 0.000000 0
-0.002008 0.000000 0
-0.001801 0.000000 0
-0.001351 0.000000 0
-0.000700 0.000000 0
0.000062 0.000000 0
0.000850 0.000000 0
0.001582 0.000000 0
0.002207 0.000000 0
0.002692 0.000000 0
0.003018 0.000000 0
0.003173 0.000000 0
0.003151 0.000000 0
0.002948 0.000000 0
0.002562 0.000000 0
0.001991 0.000000 0
0.001231 0.000000 0
0.000270 0.000000 0
-0.000895 0.000000 0
-0.002167 0.000000 0
-0.003436 0.000000 0
-0.004574 0.000000 0
-0.005423 0.000000 0
-0.005820 0.000000 0
-0.005635 0.000000 0
-0.004823 0.000000 0
-0.003470 0.000000 0
-0.001809 0.000000 0
-0.000127 0.000000 0
0.001440 0.000000 0
0.002806 0.000000 0
0.003903 0.000000 0
0.004694 0.000000 0
0.005171 0.000000 0
0.005346 0.000000 0
0.005240 0.000000 0
0.004875 0.000000 0
0.004267 0.000000 0
0.003429 0.000000 0
0.002375 0.000000 0
0.001136 0.000000 0
-0.000200 0.000000 0
-0.001435 0.000000 0
-0.002519 0.000000 0
-0.003457 0.000000 0
-0.004260 0.000000 0
-0.004929 0.000000 0
-0.005437 0.000000 0
-0.005726 0.000000 0
-0.005703 0.000000 0
-0.005261 0.000000 0
-0.004330 0.000000 0
-0.002944 0.000000 0
-0.001283 0.000000 0
0.000430 0.000000 0
0.002098 0.000000 0
0.003617 0.000000 0
0.004883 0.000000 0
0.005792 0.000000 0
0.006256 0.000000 0
0.006210 0.000000 0
0.005633 0.000000 0
0.004568 0.000000 0
0.003136 0.000000 0
0.001526 0.000000 0
-0.000036 0.000000 0
-0.001299 0.000000 0
-0.002202 0.000000 0
-0.002849 0.000000 0
-0.003336 0.000000 0
-0.003737 0.000000 0
-0.004104 0.000000 0
-0.004458 0.000000 0
-0.004796 0.000000 0
-0.005089 0.000000 0
-0.005290 0.000000 0
-0.005363 0.000000 0
-0.005298 0.000000 0
-0.005317 0.000000 0
1.000000 0.000001 0
1.002694 -0.004884 0
1.011040 -0.010543 0
1.025403 -0.016656 0
1.046174 -0.023004 0
1.073558 -0.029182 0
1.107273 -0.034483 0
1.146113 -0.037967 0
1.187660 -0.038680 0
1.228180 -0.036255 0
1.264246 -0.031249 0
1.293712 -0.024689 0
1.315692 -0.017572 0
1.330215 -0.010678 0
1.337934 -0.004572 0
1.339945 0.000348 0
1.337635 0.003845 0
1.332562 0.005816 0
1.326344 0.006277 0
1.320522 0.005392 0
1.316402 0.003480 0
1.314902 0.001023 0
1.316329 -0.001295 0
1.320161 -0.002691 0
1.324990 -0.002554 0
1.328817 -0.000656 0
1.329643 0.002820 0
1.325990 0.007382 0
1.317101 0.012409 0
1.302890 0.017324 0
1.283802 0.021680 0
1.260634 0.025183 0
1.234400 0.027649 0
1.206238 0.028969 0
1.177351 0.029081 0
1.148977 0.027954 0
1.122373 0.025568 0
1.098796 0.021909 0
1.079488 0.016933 0
1.065656 0.010561 0
1.058421 0.002823 0
1.058752 -0.005809 0
1.067348 -0.014548 0
1.084350 -0.022544 0
1.109022 -0.028814 0
1.139564 -0.032353 0
1.173146 -0.032357 0
1.206150 -0.028502 0
1.234633 -0.021209 0
1.255079 -0.011705 0
1.265242 -0.001553 0
1.264649 0.008153 0
1.254148 0.016826 0
1.235173 0.024026 0
1.209508 0.029480 0
1.179091 0.033076 0
1.145873 0.034819 0
1.111727 0.034785 0
1.078407 0.033060 0
1.047536 0.029713 0
1.020582 0.024792 0
0.998799 0.018377 0
0.983112 0.010691 0
0.974015 0.002337 0
0.971581 -0.005693 0
0.975549 -0.012734 0
0.985414 -0.018700 0
1.000589 -0.023644 0
1.020459 -0.027591 0
1.044378 -0.030448 0
1.071584 -0.031951 0
1.101007 -0.031650 0
1.131071 -0.029013 0
1.159585 -0.023678 0
1.183857 -0.015801 0
1.201058 -0.006259 0
1.208850 0.003819 0
1.206260 0.013662 0
1.193759 0.022721 0
1.172485 0.030410 0
1.144147 0.036145 0
1.110946 0.039396 0
1.075452 0.039745 0
1.040413 0.036991 0
1.008464 0.031299 0
0.981758 0.023292 0
0.961615 0.014037 0
0.948371 0.004903 0
0.941549 -0.002700 0
0.940227 -0.008142 0
0.943201 -0.011758 0
0.949339 -0.014103 0
0.957810 -0.015632 0
0.968091 -0.016652 0
0.979890 -0.017305 0
0.993009 -0.017568 0
1.007185 -0.017271 0
1.021934 -0.016169 0
1.036485 -0.014029 0
1.049839 -0.011625 0
1.060763 -0.010597 0
1.000000 0.000001 0
1.003023 -0.011043 0
1.011843 -0.022699 0
1.026791 -0.035125 0
1.048483 -0.048154 0
1.077565 -0.061099 0
1.114315 -0.072552 0
1.157916 -0.080391 0
1.205892 -0.082079 0
1.252292 -0.076603 0
1.292354 -0.065552 0
1.323950 -0.051469 0
1.346704 -0.036528 0
1.361090 -0.022269 0
1.368063 -0.009760 0
1.368946 0.000268 0
1.365294 0.007354 0
1.358826 0.011263 0
1.351346 0.012020 0
1.344600 0.009932 0
1.340125 0.005619 0
1.339121 0.000081 0
1.342191 -0.005247 0
1.348887 -0.008648 0
1.357441 -0.008647 0
1.365099 -0.004653 0
1.369128 0.002819 0
1.367796 0.012537 0
1.360406 0.023097 0
1.347070 0.033294 0
1.328451 0.042250 0
1.305523 0.049393 0
1.279408 0.054384 0
1.251289 0.057036 0
1.222371 0.057246 0
1.193865 0.054961 0
1.166981 0.050163 0
1.142899 0.042865 0
1.122740 0.033119 0
1.107515 0.021047 0
1.098094 0.006882 0
1.095312 -0.008948 0
1.100105 -0.025617 0
1.113034 -0.041690 0
1.133915 -0.055225 0
1.161703 -0.064131 0
1.194539 -0.066589 0
1.229683 -0.061486 0
1.263446 -0.048927 0
1.291492 -0.030607 0
1.309773 -0.009569 0
1.316095 0.011092 0
1.311130 0.029471 0
1.296622 0.044632 0
1.274635 0.056071 0
1.247305 0.063623 0
1.216697 0.067352 0
1.184714 0.067453 0
1.153056 0.064178 0
1.123176 0.057812 0
1.096240 0.048724 0
1.073059 0.037456 0
1.054052 0.024770 0
1.039305 0.011517 0
1.028862 -0.001549 0
1.022965 -0.013847 0
1.021684 -0.025054 0
1.024979 -0.035059 0
1.032840 -0.043802 0
1.045378 -0.051135 0
1.062743 -0.056638 0
1.084841 -0.059494 0
1.111002 -0.058582 0
1.139772 -0.052789 0
1.168870 -0.041476 0
1.195248 -0.024995 0
1.215403 -0.005205 0
1.226412 0.015087 0
1.227484 0.033771 0
1.219471 0.049607 0
1.203817 0.061533 0
1.182374 0.068690 0
1.157202 0.070531 0
1.130339 0.066988 0
1.103576 0.058657 0
1.078285 0.046855 0
1.055354 0.033395 0
1.035281 0.020076 0
1.018393 0.008156 0
1.005051 -0.001639 0
0.995251 -0.009097 0
0.988631 -0.014592 0
0.984797 -0.018735 0
0.983571 -0.022061 0
0.985000 -0.024897 0
0.989234 -0.027273 0
0.996327 -0.028902 0
1.006028 -0.029277 0
1.017668 -0.027881 0
1.030224 -0.024254 0
1.040941 -0.022083 0
1.000000 -0.000000 0
1.002631 -0.016722 0
1.010642 -0.034306 0
1.024660 -0.053299 0
1.045810 -0.073784 0
1.075614 -0.095013 0
1.115575 -0.114840 0
1.166045 -0.129556 0
1.225573 -0.133066 0
1.281294 -0.122728 0
1.325944 -0.102917 0
1.358550 -0.079050 0
1.380265 -0.054723 0
1.392397 -0.032048 0
1.396281 -0.012440 0
1.393528 0.003107 0
1.385839 0.013957 0
1.375176 0.019761 0
1.363667 0.020510 0
1.353410 0.016624 0
1.346293 0.008970 0
1.343915 -0.001031 0
1.347551 -0.011054 0
1.357171 -0.017941 0
1.370570 -0.018773 0
1.383644 -0.012358 0
1.392013 0.000113 0
1.393159 0.016104 0
1.386617 0.033133 0
1.372970 0.049273 0
1.353354 0.063221 0
1.329077 0.074220 0
1.301443 0.081877 0
1.271691 0.085999 0
1.241014 0.086497 0
1.210568 0.083335 0
1.181489 0.076527 0
1.154872 0.066142 0
1.131751 0.052309 0
1.113043 0.035200 0
1.099506 0.015018 0
1.091735 -0.007826 0
1.090312 -0.032272 0
1.095714 -0.056354 0
1.108138 -0.077482 0
1.127608 -0.092974 0
1.154039 -0.100332 0
1.186623 -0.097406 0
1.223021 -0.083017 0
1.259013 -0.058032 0
1.289004 -0.026160 0
1.307640 0.006789 0
1.312826 0.036290 0
1.306418 0.060513 0
1.290809 0.078791 0
1.268418 0.091008 0
1.241511 0.097405 0
1.212094 0.098420 0
1.181855 0.094592 0
1.152148 0.086523 0
1.123991 0.074904 0
1.098097 0.060560 0
1.074939 0.044440 0
1.054783 0.027521 0
1.037646 0.010641 0
1.023331 -0.005562 0
1.011668 -0.020719 0
1.002907 -0.034805 0
0.997918 -0.047993 0
0.997987 -0.060353 0
1.004456 -0.071416 0
1.018062 -0.079909 0
1.038542 -0.083943 0
1.064658 -0.081546 0
1.094424 -0.071278 0
1.125317 -0.052793 0
1.154356 -0.027347 0
1.178051 0.001577 0
1.193300 0.029657 0
1.199601 0.054072 0
1.197709 0.073239 0
1.188826 0.086010 0
1.174358 0.091781 0
1.155711 0.090619 0
1.134174 0.083355 0
1.110902 0.071517 0
1.086983 0.057044 0
1.063444 0.041868 0
1.041116 0.027533 0
1.020458 0.015003 0
1.001756 0.004665 0
0.985196 -0.003645 0
0.971043 -0.010567 0
0.959826 -0.016848 0
0.952286 -0.022962 0
0.949037 -0.028889 0
0.950263 -0.034059 0
0.955576 -0.037503 0
0.964017 -0.038218 0
0.974191 -0.034891 0
0.983774 -0.032603 0
1.000000 -0.000001 0
1.002102 -0.021681 0
1.008653 -0.044730 0
1.020573 -0.070299 0
1.039621 -0.099109 0
1.068577 -0.130866 0
1.111216 -0.162994 0
1.170850 -0.190400 0
1.251777 -0.197337 0
1.319648 -0.176983 0
1.365954 -0.142818 0
1.395517 -0.105799 0
1.413047 -0.070385 0
1.420762 -0.038297 0
1.419912 -0.010901 0
1.411822 0.010702 0
1.398120 0.025700 0
1.381048 0.033441 0
1.363205 0.033795 0
1.347199 0.027315 0
1.335287 0.015124 0
1.329273 -0.001171 0
1.331148 -0.018503 0
1.342327 -0.031674 0
1.360982 -0.035135 0
1.381909 -0.026106 0
1.397980 -0.006695 0
1.403877 0.017931 0
1.399267 0.043281 0
1.385740 0.066553 0
1.365264 0.086137 0
1.339644 0.101297 0
1.310393 0.111763 0
1.278801 0.117458 0
1.246027 0.118361 0
1.213182 0.114478 0
1.181364 0.105851 0
1.151652 0.092594 0
1.125060 0.074940 0
1.102369 0.053285 0
1.083788 0.028184 0
1.068657 0.000241 0
1.055959 -0.029597 0
1.046093 -0.059515 0
1.040949 -0.087116 0
1.043191 -0.110029 0
1.055675 -0.125601 0
1.079763 -0.130465 0
1.114369 -0.121318 0
1.155920 -0.096593 0
1.198673 -0.058202 0
1.235335 -0.012739 0
1.258965 0.030684 0
1.268215 0.066643 0
1.265502 0.094066 0
1.253399 0.112915 0
1.234370 0.123670 0
1.210623 0.127104 0
1.184037 0.124118 0
1.156139 0.115671 0
1.128120 0.102770 0
1.100852 0.086503 0
1.074868 0.068079 0
1.050279 0.048804 0
1.026724 0.029897 0
1.003604 0.012125 0
0.980793 -0.004635 0
0.959333 -0.021312 0
0.941752 -0.038884 0
0.931261 -0.057675 0
0.930039 -0.076713 0
0.938515 -0.093581 0
0.955696 -0.105179 0
0.979846 -0.108673 0
1.008950 -0.102137 0
1.040913 -0.084930 0
1.073544 -0.057943 0
1.104357 -0.023861 0
1.130021 0.012216 0
1.147831 0.045193 0
1.157556 0.072305 0
1.159663 0.092040 0
1.154948 0.103646 0
1.144347 0.107173 0
1.128850 0.103467 0
1.109484 0.094046 0
1.087307 0.080854 0
1.063323 0.065944 0
1.038369 0.051142 0
1.013079 0.037722 0
0.988069 0.026168 0
0.964239 0.016124 0
0.942856 0.006640 0
0.925326 -0.003299 0
0.912843 -0.014103 0
0.906081 -0.025245 0
0.904932 -0.035437 0
0.908541 -0.043026 0
0.915552 -0.046491 0
0.924334 -0.044006 0
0.932753 -0.041935 0
1.000000 -0.000001 0
1.001269 -0.025374 0
1.005338 -0.052782 0
1.013245 -0.084270 0
1.027180 -0.121789 0
1.051229 -0.166614 0
1.092482 -0.217122 0
1.160671 -0.270125 0
1.278708 -0.281872 0
1.352404 -0.236914 0
1.386153 -0.178794 0
1.401935 -0.126152 0
1.409655 -0.079979 0
1.410804 -0.038922 0
1.404384 -0.003507 0
1.389907 0.024893 0
1.368661 0.044733 0
1.343139 0.054684 0
1.316501 0.054368 0
1.291984 0.044550 0
1.272234 0.026902 0
1.258841 0.003108 0
1.253033 -0.024114 0
1.258811 -0.047788 0
1.277261 -0.058368 0
1.305220 -0.049356 0
1.334391 -0.021855 0
1.353495 0.014812 0
1.357501 0.051266 0
1.349817 0.083270 0
1.333741 0.109312 0
1.311628 0.129084 0
1.285076 0.142712 0
1.255285 0.150358 0
1.223306 0.152108 0
1.190179 0.147990 0
1.156956 0.138049 0
1.124680 0.122439 0
1.094277 0.101585 0
1.066220 0.076465 0
1.039836 0.048726 0
1.012819 0.020001 0
0.982556 -0.009709 0
0.949659 -0.041342 0
0.920915 -0.074577 0
0.905037 -0.107696 0
0.906349 -0.136903 0
0.924720 -0.156101 0
0.957640 -0.159178 0
1.001476 -0.142342 0
1.051706 -0.105584 0
1.102619 -0.053510 0
1.146733 0.003405 0
1.176858 0.053969 0
1.192848 0.093601 0
1.196847 0.122135 0
1.191110 0.140175 0
1.177810 0.148749 0
1.158915 0.149071 0
1.136123 0.142434 0
1.110798 0.130186 0
1.083859 0.113806 0
1.055607 0.095007 0
1.025673 0.075659 0
0.993457 0.057310 0
0.959208 0.040364 0
0.925032 0.023548 0
0.894683 0.004234 0
0.872149 -0.019923 0
0.860233 -0.048641 0
0.859473 -0.078671 0
0.868521 -0.105567 0
0.885413 -0.125274 0
0.908312 -0.134801 0
0.935644 -0.132348 0
0.965975 -0.117391 0
0.997865 -0.090796 0
1.029735 -0.054906 0
1.059605 -0.013823 0
1.084286 0.026533 0
1.101926 0.061405 0
1.112219 0.088617 0
1.115341 0.107096 0
1.111757 0.116717 0
1.102099 0.118218 0
1.087097 0.113059 0
1.067511 0.103203 0
1.044079 0.090804 0
1.017571 0.077777 0
0.988984 0.065303 0
0.959800 0.053508 0
0.932043 0.041571 0
0.907942 0.028349 0
0.889316 0.013168 0
0.877048 -0.003714 0
0.871052 -0.020976 0
0.870521 -0.036515 0
0.874210 -0.048120 0
0.880692 -0.054008 0
0.888475 -0.052088 0
0.895711 -0.050092 0
1.000000 -0.000001 0
1.000073 -0.027022 0
1.000452 -0.056711 0
1.001875 -0.092142 0
1.006202 -0.137097 0
1.017754 -0.196175 0
1.046319 -0.272443 0
1.111829 -0.376633 0
1.279618 -0.389076 0
1.328603 -0.284436 0
1.317210 -0.192358 0
1.302378 -0.129310 0
1.294392 -0.079263 0
1.290094 -0.033034 0
1.280052 0.009990 0
1.260580 0.046425 0
1.232226 0.072476 0
1.197476 0.085607 0
1.159930 0.084958 0
1.123410 0.071588 0
1.090726 0.048268 0
1.063112 0.018026 0
1.041195 -0.018483 0
1.028736 -0.055915 0
1.036194 -0.081547 0
1.066348 -0.083234 0
1.112695 -0.054973 0
1.161261 -0.005185 0
1.195237 0.046953 0
1.210948 0.090307 0
1.214339 0.124319 0
1.208690 0.149955 0
1.195708 0.168099 0
1.176550 0.179220 0
1.152281 0.183460 0
1.123994 0.180822 0
1.092705 0.171343 0
1.058941 0.155266 0
1.022042 0.133394 0
0.979893 0.107720 0
0.930601 0.081583 0
0.875926 0.057521 0
0.822712 0.033564 0
0.779488 0.002129 0
0.752685 -0.042491 0
0.744670 -0.095462 0
0.753411 -0.145285 0
0.775803 -0.181758 0
0.809420 -0.198079 0
0.852356 -0.190668 0
0.902441 -0.159354 0
0.956665 -0.107771 0
1.010687 -0.043559 0
1.057162 0.020523 0
1.090272 0.074072 0
1.110519 0.114647 0
1.119340 0.142702 0
1.118387 0.159294 0
1.109322 0.165800 0
1.093640 0.163783 0
1.072460 0.155028 0
1.046296 0.141687 0
1.015013 0.126259 0
0.978367 0.110949 0
0.937261 0.096356 0
0.894929 0.080545 0
0.856709 0.059886 0
0.827998 0.031569 0
0.811645 -0.004435 0
0.807069 -0.044999 0
0.811760 -0.085002 0
0.823137 -0.119522 0
0.839427 -0.144971 0
0.859635 -0.158906 0
0.883167 -0.159804 0
0.909453 -0.147156 0
0.937720 -0.121709 0
0.966932 -0.085607 0
0.995791 -0.042339 0
1.022362 0.002868 0
1.043813 0.044370 0
1.058981 0.078624 0
1.067430 0.104107 0
1.069113 0.120414 0
1.064219 0.128125 0
1.053072 0.128632 0
1.036093 0.123869 0
1.013875 0.115882 0
0.987409 0.106237 0
0.958337 0.095494 0
0.929008 0.083110 0
0.902118 0.067983 0
0.880032 0.049369 0
0.864161 0.027597 0
0.854733 0.004163 0
0.850955 -0.018716 0
0.851577 -0.038593 0
0.855322 -0.053194 0
0.861010 -0.060754 0
0.867533 -0.059024 0
0.873460 -0.056949 0
1.000000 -0.000001 0
0.998615 -0.025832 0
0.994379 -0.054588 0
0.987156 -0.090022 0
0.977112 -0.137672 0
0.965809 -0.206738 0
0.959729 -0.311204 0
0.981294 -0.503432 0
1.143812 -0.498653 0
1.130235 -0.274513 0
1.026530 -0.152577 0
0.970583 -0.103343 0
0.946583 -0.067703 0
0.946897 -0.024588 0
0.943545 0.026004 0
0.926649 0.072724 0
0.895476 0.107843 0
0.850375 0.126987 0
0.792911 0.128441 0
0.727373 0.113757 0
0.663017 0.087197 0
0.613102 0.052631 0
0.588952 0.010250 0
0.592867 -0.042794 0
0.622111 -0.095980 0
0.673506 -0.125859 0
0.743180 -0.116772 0
0.824724 -0.067736 0
0.904455 0.001573 0
0.965255 0.064161 0
1.004425 0.111562 0
1.028189 0.147708 0
1.039169 0.174845 0
1.038806 0.193778 0
1.028259 0.204657 0
1.008398 0.207559 0
0.979422 0.203095 0
0.940432 0.193095 0
0.889789 0.180628 0
0.827315 0.167903 0
0.757812 0.152692 0
0.692494 0.127890 0
0.644806 0.086731 0
0.622714 0.028688 0
0.623394 -0.039756 0
0.637121 -0.108422 0
0.657168 -0.168037 0
0.681473 -0.212114 0
0.710737 -0.235738 0
0.746372 -0.235371 0
0.788949 -0.209898 0
0.837442 -0.161761 0
0.889291 -0.097098 0
0.940468 -0.025621 0
0.983634 0.040238 0
1.015203 0.093061 0
1.035378 0.132302 0
1.044889 0.158761 0
1.044679 0.173812 0
1.035606 0.179291 0
1.018186 0.177525 0
0.992550 0.171247 0
0.958961 0.162929 0
0.918965 0.153405 0
0.876456 0.140743 0
0.837304 0.120912 0
0.807192 0.090476 0
0.789186 0.049296 0
0.782982 0.001005 0
0.785727 -0.048757 0
0.793935 -0.094739 0
0.805283 -0.133235 0
0.818730 -0.161774 0
0.834136 -0.178544 0
0.851799 -0.182172 0
0.871986 -0.171951 0
0.894586 -0.148281 0
0.918989 -0.112981 0
0.944184 -0.069256 0
0.968850 -0.021492 0
0.990727 0.024783 0
1.007817 0.064998 0
1.019141 0.096962 0
1.024174 0.119924 0
1.022684 0.134254 0
1.014656 0.141181 0
1.000355 0.142396 0
0.980504 0.139486 0
0.956526 0.133315 0
0.930606 0.123704 0
0.905402 0.109726 0
0.883416 0.090547 0
0.866366 0.066307 0
0.854880 0.038468 0
0.848638 0.009494 0
0.846725 -0.017818 0
0.847958 -0.040880 0
0.851262 -0.057552 0
0.855766 -0.066218 0
0.860758 -0.064537 0
0.865269 -0.062356 0
1.000000 -0.000000 0
0.997193 -0.021407 0
0.988374 -0.045256 0
0.972190 -0.074879 0
0.945997 -0.115755 0
0.905046 -0.178798 0
0.840679 -0.287936 0
0.737739 -0.560724 0
0.553759 -0.538024 0
-0.000224 -0.167162 0
0.402418 -0.032714 0
0.332325 -0.049371 0
0.341655 -0.055584 0
0.380586 -0.030000 0
0.419426 0.030241 0
0.424541 0.094501 0
0.404649 0.148756 0
0.362212 0.188180 0
0.301800 0.207963 0
0.233904 0.201481 0
0.176533 0.162534 0
0.149711 0.092081 0
0.164207 0.001743 0
0.209080 -0.089076 0
0.268332 -0.162188 0
0.335739 -0.204308 0
0.412024 -0.206196 0
0.499249 -0.166466 0
0.596168 -0.093585 0
0.689768 -0.009670 0
0.763669 0.061377 0
0.815255 0.115204 0
0.848903 0.157475 0
0.866206 0.190123 0
0.867920 0.213861 0
0.854191 0.229652 0
0.824682 0.239302 0
0.779535 0.244894 0
0.721721 0.246506 0
0.659555 0.239695 0
0.605866 0.216404 0
0.572165 0.170528 0
0.562464 0.103346 0
0.572558 0.023543 0
0.592989 -0.056896 0
0.614768 -0.129236 0
0.634162 -0.189640 0
0.651326 -0.235333 0
0.668836 -0.262986 0
0.690327 -0.268887 0
0.718846 -0.250428 0
0.755370 -0.208119 0
0.798413 -0.146592 0
0.844760 -0.073826 0
0.889564 -0.000668 0
0.926258 0.062897 0
0.952902 0.113010 0
0.969131 0.149987 0
0.975010 0.175077 0
0.970675 0.190270 0
0.956264 0.198078 0
0.932283 0.200906 0
0.900493 0.199839 0
0.864733 0.193449 0
0.830661 0.178014 0
0.803890 0.149806 0
0.787667 0.108002 0
0.781949 0.055777 0
0.784385 -0.000977 0
0.791754 -0.055953 0
0.801223 -0.104560 0
0.811063 -0.144319 0
0.820632 -0.173827 0
0.830210 -0.191979 0
0.840705 -0.197659 0
0.853190 -0.189949 0
0.868368 -0.168718 0
0.886230 -0.135210 0
0.906054 -0.092205 0
0.926646 -0.043679 0
0.946406 0.005400 0
0.963063 0.050207 0
0.975194 0.087745 0
0.981894 0.116865 0
0.982624 0.137637 0
0.977203 0.150956 0
0.965934 0.158018 0
0.949787 0.159709 0
0.930497 0.156133 0
0.910373 0.146616 0
0.891784 0.130299 0
0.876557 0.107019 0
0.865604 0.077905 0
0.858947 0.045324 0
0.856010 0.012318 0
0.855944 -0.018035 0
0.857774 -0.043129 0
0.860661 -0.061002 0
0.864002 -0.070249 0
0.867438 -0.068526 0
0.870500 -0.066235 0
1.000000 0.000001 0
0.996207 -0.014212 0
0.984216 -0.029590 0
0.961826 -0.047650 0
0.924422 -0.070534 0
0.862733 -0.101427 0
0.756943 -0.143905 0
0.563569 -0.216519 0
0.072690 -0.000264 0
-0.534204 0.133488 0
0.000000 0.000061 0
-0.031572 -0.053626 0
-0.056605 -0.115969 0
-0.037055 -0.102360 0
-0.015290 -0.017945 0
0.002923 0.087506 0
0.003598 0.170178 0
-0.013076 0.229842 0
-0.038913 0.256751 0
-0.059942 0.239021 0
-0.057628 0.171382 0
-0.019433 0.064948 0
0.034642 -0.049124 0
0.087878 -0.146920 0
0.137038 -0.222643 0
0.184475 -0.269556 0
0.236176 -0.280287 0
0.298412 -0.251886 0
0.374069 -0.188953 0
0.460718 -0.103346 0
0.545233 -0.013933 0
0.612232 0.062466 0
0.659037 0.123887 0
0.687027 0.174754 0
0.696495 0.216665 0
0.687695 0.250790 0
0.662116 0.277745 0
0.624293 0.296051 0
0.583143 0.300605 0
0.550549 0.283757 0
0.536428 0.240082 0
0.543697 0.171294 0
0.567789 0.086340 0
0.600043 -0.001835 0
0.630328 -0.081965 0
0.653958 -0.149597 0
0.669437 -0.204600 0
0.677450 -0.246794 0
0.680852 -0.274747 0
0.684376 -0.285386 0
0.693384 -0.274946 0
0.711745 -0.241334 0
0.740118 -0.186494 0
0.775965 -0.116779 0
0.814978 -0.041265 0
0.851045 0.029718 0
0.879422 0.089424 0
0.898528 0.136647 0
0.907646 0.172261 0
0.906495 0.198031 0
0.895388 0.215911 0
0.875804 0.227012 0
0.851005 0.230474 0
0.825924 0.223233 0