# vtk DataFile Version 2.0
generated by CFD-lab course output (written by Tobias Neckel) 
ASCII

DATASET STRUCTURED_GRID
DIMENSIONS  101 21 1 
POINTS 2121 float

0.000000 0.000000 0
0.100000 0.000000 0
0.200000 0.000000 0
0.300000 0.000000 0
0.400000 0.000000 0
0.500000 0.000000 0
0.600000 0.000000 0
0.700000 0.000000 0
0.800000 0.000000 0
0.900000 0.000000 0
1.000000 0.000000 0
1.100000 0.000000 0
1.200000 0.000000 0
1.300000 0.000000 0
1.400000 0.000000 0
1.500000 0.000000 0
1.600000 0.000000 0
1.700000 0.000000 0
1.800000 0.000000 0
1.900000 0.000000 0
2.000000 0.000000 0
2.100000 0.000000 0
2.200000 0.000000 0
2.300000 0.000000 0
2.400000 0.000000 0
2.500000 0.000000 0
2.600000 0.000000 0
2.700000 0.000000 0
2.800000 0.000000 0
2.900000 0.000000 0
3.000000 0.000000 0
3.100000 0.000000 0
3.200000 0.000000 0
3.300000 0.000000 0
3.400000 0.000000 0
3.500000 0.000000 0
3.600000 0.000000 0
3.700000 0.000000 0
3.800000 0.000000 0
3.900000 0.000000 0
4.000000 0.000000 0
4.100000 0.000000 0
4.200000 0.000000 0
4.300000 0.000000 0
4.400000 0.000000 0
4.500000 0.000000 0
4.600000 0.000000 0
4.700000 0.000000 0
4.800000 0.000000 0
4.900000 0.000000 0
5.000000 0.000000 0
5.100000 0.000000 0
5.200000 0.000000 0
5.300000 0.000000 0
5.400000 0.000000 0
5.500000 0.000000 0
5.600000 0.000000 0
5.700000 0.000000 0
5.800000 0.000000 0
5.900000 0.000000 0
6.000000 0.000000 0
6.100000 0.000000 0
6.200000 0.000000 0
6.300000 0.000000 0
6.400000 0.000000 0
6.500000 0.000000 0
6.600000 0.000000 0
6.700000 0.000000 0
6.800000 0.000000 0
6.900000 0.000000 0
7.000000 0.000000 0
7.100000 0.000000 0
7.200000 0.000000 0
7.300000 0.000000 0
7.400000 0.000000 0
7.500000 0.000000 0
7.600000 0.000000 0
7.700000 0.000000 0
7.800000 0.000000 0
7.900000 0.000000 0
8.000000 0.000000 0
8.100000 0.000000 0
8.200000 0.000000 0
8.300000 0.000000 0
8.400000 0.000000 0
8.500000 0.000000 0
8.600000 0.000000 0
8.700000 0.000000 0
8.800000 0.000000 0
8.900000 0.000000 0
9.000000 0.000000 0
9.100000 0.000000 0
9.200000 0.000000 0
9.300000 0.000000 0
9.400000 0.000000 0
9.500000 0.000000 0
9.600000 0.000000 0
9.700000 0.000000 0
9.800000 0.000000 0
9.900000 0.000000 0
10.000000 0.000000 0
0.000000 0.100000 0
0.100000 0.100000 0
0.200000 0.100000 0
0.300000 0.100000 0
0.400000 0.100000 0
0.500000 0.100000 0
0.600000 0.100000 0
0.700000 0.100000 0
0.800000 0.100000 0
0.900000 0.100000 0
1.000000 0.100000 0
1.100000 0.100000 0
1.200000 0.100000 0
1.300000 0.100000 0
1.400000 0.100000 0
1.500000 0.100000 0
1.600000 0.100000 0
1.700000 0.100000 0
1.800000 0.100000 0
1.900000 0.100000 0
2.000000 0.100000 0
2.100000 0.100000 0
2.200000 0.100000 0
2.300000 0.100000 0
2.400000 0.100000 0
2.500000 0.100000 0
2.600000 0.100000 0
2.700000 0.100000 0
2.800000 0.100000 0
2.900000 0.100000 0
3.000000 0.100000 0
3.100000 0.100000 0
3.200000 0.100000 0
3.300000 0.100000 0
3.400000 0.100000 0
3.500000 0.100000 0
3.600000 0.100000 0
3.700000 0.100000 0
3.800000 0.100000 0
3.900000 0.100000 0
4.000000 0.100000 0
4.100000 0.100000 0
4.200000 0.100000 0
4.300000 0.100000 0
4.400000 0.100000 0
4.500000 0.100000 0
4.600000 0.100000 0
4.700000 0.100000 0
4.800000 0.100000 0
4.900000 0.100000 0
5.000000 0.100000 0
5.100000 0.100000 0
5.200000 0.100000 0
5.300000 0.100000 0
5.400000 0.100000 0
5.500000 0.100000 0
5.600000 0.100000 0
5.700000 0.100000 0
5.800000 0.100000 0
5.900000 0.100000 0
6.000000 0.100000 0
6.100000 0.100000 0
6.200000 0.100000 0
6.300000 0.100000 0
6.400000 0.100000 0
6.500000 0.100000 0
6.600000 0.100000 0
6.700000 0.100000 0
6.800000 0.100000 0
6.900000 0.100000 0
7.000000 0.100000 0
7.100000 0.100000 0
7.200000 0.100000 0
7.300000 0.100000 0
7.400000 0.100000 0
7.500000 0.100000 0
7.600000 0.100000 0
7.700000 0.100000 0
7.800000 0.100000 0
7.900000 0.100000 0
8.000000 0.100000 0
8.100000 0.100000 0
8.200000 0.100000 0
8.300000 0.100000 0
8.400000 0.100000 0
8.500000 0.100000 0
8.600000 0.100000 0
8.700000 0.100000 0
8.800000 0.100000 0
8.900000 0.100000 0
9.000000 0.100000 0
9.100000 0.100000 0
9.200000 0.100000 0
9.300000 0.100000 0
9.400000 0.100000 0
9.500000 0.100000 0
9.600000 0.100000 0
9.700000 0.100000 0
9.800000 0.100000 0
9.900000 0.100000 0
10.000000 0.100000 0
0.000000 0.200000 0
0.100000 0.200000 0
0.200000 0.200000 0
0.300000 0.200000 0
0.400000 0.200000 0
0.500000 0.200000 0
0.600000 0.200000 0
0.700000 0.200000 0
0.800000 0.200000 0
0.900000 0.200000 0
1.000000 0.200000 0
1.100000 0.200000 0
1.200000 0.200000 0
1.300000 0.200000 0
1.400000 0.200000 0
1.500000 0.200000 0
1.600000 0.200000 0
1.700000 0.200000 0
1.800000 0.200000 0
1.900000 0.200000 0
2.000000 0.200000 0
2.100000 0.200000 0
2.200000 0.200000 0
2.300000 0.200000 0
2.400000 0.200000 0
2.500000 0.200000 0
2.600000 0.200000 0
2.700000 0.200000 0
2.800000 0.200000 0
2.900000 0.200000 0
3.000000 0.200000 0
3.100000 0.200000 0
3.200000 0.200000 0
3.300000 0.200000 0
3.400000 0.200000 0
3.500000 0.200000 0
3.600000 0.200000 0
3.700000 0.200000 0
3.800000 0.200000 0
3.900000 0.200000 0
4.000000 0.200000 0
4.100000 0.200000 0
4.200000 0.200000 0
4.300000 0.200000 0
4.400000 0.200000 0
4.500000 0.200000 0
4.600000 0.200000 0
4.700000 0.200000 0
4.800000 0.200000 0
4.900000 0.200000 0
5.000000 0.200000 0
5.100000 0.200000 0
5.200000 0.200000 0
5.300000 0.200000 0
5.400000 0.200000 0
5.500000 0.200000 0
5.600000 0.200000 0
5.700000 0.200000 0
5.800000 0.200000 0
5.900000 0.200000 0
6.000000 0.200000 0
6.100000 0.200000 0
6.200000 0.200000 0
6.300000 0.200000 0
6.400000 0.200000 0
6.500000 0.200000 0
6.600000 0.200000 0
6.700000 0.200000 0
6.800000 0.200000 0
6.900000 0.200000 0
7.000000 0.200000 0
7.100000 0.200000 0
7.200000 0.200000 0
7.300000 0.200000 0
7.400000 0.200000 0
7.500000 0.200000 0
7.600000 0.200000 0
7.700000 0.200000 0
7.800000 0.200000 0
7.900000 0.200000 0
8.000000 0.200000 0
8.100000 0.200000 0
8.200000 0.200000 0
8.300000 0.200000 0
8.400000 0.200000 0
8.500000 0.200000 0
8.600000 0.200000 0
8.700000 0.200000 0
8.800000 0.200000 0
8.900000 0.200000 0
9.000000 0.200000 0
9.100000 0.200000 0
9.200000 0.200000 0
9.300000 0.200000 0
9.400000 0.200000 0
9.500000 0.200000 0
9.600000 0.200000 0
9.700000 0.200000 0
9.800000 0.200000 0
9.900000 0.200000 0
10.000000 0.200000 0
0.000000 0.300000 0
0.100000 0.300000 0
0.200000 0.300000 0
0.300000 0.300000 0
0.400000 0.300000 0
0.500000 0.300000 0
0.600000 0.300000 0
0.700000 0.300000 0
0.800000 0.300000 0
0.900000 0.300000 0
1.000000 0.300000 0
1.100000 0.300000 0
1.200000 0.300000 0
1.300000 0.300000 0
1.400000 0.300000 0
1.500000 0.300000 0
1.600000 0.300000 0
1.700000 0.300000 0
1.800000 0.300000 0
1.900000 0.300000 0
2.000000 0.300000 0
2.100000 0.300000 0
2.200000 0.300000 0
2.300000 0.300000 0
2.400000 0.300000 0
2.500000 0.300000 0
2.600000 0.300000 0
2.700000 0.300000 0
2.800000 0.300000 0
2.900000 0.300000 0
3.000000 0.300000 0
3.100000 0.300000 0
3.200000 0.300000 0
3.300000 0.300000 0
3.400000 0.300000 0
3.500000 0.300000 0
3.600000 0.300000 0
3.700000 0.300000 0
3.800000 0.300000 0
3.900000 0.300000 0
4.000000 0.300000 0
4.100000 0.300000 0
4.200000 0.300000 0
4.300000 0.300000 0
4.400000 0.300000 0
4.500000 0.300000 0
4.600000 0.300000 0
4.700000 0.300000 0
4.800000 0.300000 0
4.900000 0.300000 0
5.000000 0.300000 0
5.100000 0.300000 0
5.200000 0.300000 0
5.300000 0.300000 0
5.400000 0.300000 0
5.500000 0.300000 0
5.600000 0.300000 0
5.700000 0.300000 0
5.800000 0.300000 0
5.900000 0.300000 0
6.000000 0.300000 0
6.100000 0.300000 0
6.200000 0.300000 0
6.300000 0.300000 0
6.400000 0.300000 0
6.500000 0.300000 0
6.600000 0.300000 0
6.700000 0.300000 0
6.800000 0.300000 0
6.900000 0.300000 0
7.000000 0.300000 0
7.100000 0.300000 0
7.200000 0.300000 0
7.300000 0.300000 0
7.400000 0.300000 0
7.500000 0.300000 0
7.600000 0.300000 0
7.700000 0.300000 0
7.800000 0.300000 0
7.900000 0.300000 0
8.000000 0.300000 0
8.100000 0.300000 0
8.200000 0.300000 0
8.300000 0.300000 0
8.400000 0.300000 0
8.500000 0.300000 0
8.600000 0.300000 0
8.700000 0.300000 0
8.800000 0.300000 0
8.900000 0.300000 0
9.000000 0.300000 0
9.100000 0.300000 0
9.200000 0.300000 0
9.300000 0.300000 0
9.400000 0.300000 0
9.500000 0.300000 0
9.600000 0.300000 0
9.700000 0.300000 0
9.800000 0.300000 0
9.900000 0.300000 0
10.000000 0.300000 0
0.000000 0.400000 0
0.100000 0.400000 0
0.200000 0.400000 0
0.300000 0.400000 0
0.400000 0.400000 0
0.500000 0.400000 0
0.600000 0.400000 0
0.700000 0.400000 0
0.800000 0.400000 0
0.900000 0.400000 0
1.000000 0.400000 0
1.100000 0.400000 0
1.200000 0.400000 0
1.300000 0.400000 0
1.400000 0.400000 0
1.500000 0.400000 0
1.600000 0.400000 0
1.700000 0.400000 0
1.800000 0.400000 0
1.900000 0.400000 0
2.000000 0.400000 0
2.100000 0.400000 0
2.200000 0.400000 0
2.300000 0.400000 0
2.400000 0.400000 0
2.500000 0.400000 0
2.600000 0.400000 0
2.700000 0.400000 0
2.800000 0.400000 0
2.900000 0.400000 0
3.000000 0.400000 0
3.100000 0.400000 0
3.200000 0.400000 0
3.300000 0.400000 0
3.400000 0.400000 0
3.500000 0.400000 0
3.600000 0.400000 0
3.700000 0.400000 0
3.800000 0.400000 0
3.900000 0.400000 0
4.000000 0.400000 0
4.100000 0.400000 0
4.200000 0.400000 0
4.300000 0.400000 0
4.400000 0.400000 0
4.500000 0.400000 0
4.600000 0.400000 0
4.700000 0.400000 0
4.800000 0.400000 0
4.900000 0.400000 0
5.000000 0.400000 0
5.100000 0.400000 0
5.200000 0.400000 0
5.300000 0.400000 0
5.400000 0.400000 0
5.500000 0.400000 0
5.600000 0.400000 0
5.700000 0.400000 0
5.800000 0.400000 0
5.900000 0.400000 0
6.000000 0.400000 0
6.100000 0.400000 0
6.200000 0.400000 0
6.300000 0.400000 0
6.400000 0.400000 0
6.500000 0.400000 0
6.600000 0.400000 0
6.700000 0.400000 0
6.800000 0.400000 0
6.900000 0.400000 0
7.000000 0.400000 0
7.100000 0.400000 0
7.200000 0.400000 0
7.300000 0.400000 0
7.400000 0.400000 0
7.500000 0.400000 0
7.600000 0.400000 0
7.700000 0.400000 0
7.800000 0.400000 0
7.900000 0.400000 0
8.000000 0.400000 0
8.100000 0.400000 0
8.200000 0.400000 0
8.300000 0.400000 0
8.400000 0.400000 0
8.500000 0.400000 0
8.600000 0.400000 0
[...]
POINT_DATA 2121 

VECTORS velocity float
0.500000 0.000000 0
0.000015 0.000000 0
0.000021 0.000000 0
0.000030 0.000000 0
0.000046 0.000000 0
0.000069 0.000000 0
0.000100 0.000000 0
0.000140 0.000000 0
0.000186 0.000000 0
0.000235 0.000000 0
0.000279 0.000000 0
0.000310 0.000000 0
0.000316 0.000000 0
0.000282 0.000000 0
0.000193 0.000000 0
0.000036 0.000000 0
-0.000197 0.000000 0
-0.000508 0.000000 0
-0.000887 0.000000 0
-0.001310 0.000000 0
-0.001739 0.000000 0
-0.002108 0.000000 0
-0.002327 0.000000 0
-0.002303 0.000000 0
-0.001984 0.000000 0
-0.001389 0.000000 0
-0.000600 0.000000 0
0.000269 0.000000 0
0.001119 0.000000 0
0.001873 0.000000 0
0.002482 0.000000 0
0.002918 0.000000 0
0.003166 0.000000 0
0.003222 0.000000 0
0.003082 0.000000 0
0.002746 0.000000 0
0.002215 0.000000 0
0.001487 0.000000 0
0.000561 0.000000 0
-0.000572 0.000000 0
-0.001953 0.000000 0
-0.003562 0.000000 0
-0.005267 0.000000 0
-0.006852 0.000000 0
-0.008060 0.000000 0
-0.008650 0.000000 0
-0.008434 0.000000 0
-0.007347 0.000000 0
-0.005497 0.000000 0
-0.003183 0.000000 0
-0.000817 0.000000 0
0.001279 0.000000 0
0.002979 0.000000 0
0.004206 0.000000 0
0.004938 0.000000 0
0.005202 0.000000 0
0.005065 0.000000 0
0.004621 0.000000 0
0.003972 0.000000 0
0.003215 0.000000 0
0.002428 0.000000 0
0.001666 0.000000 0
0.000960 0.000000 0
0.000297 0.000000 0
-0.000392 0.000000 0
-0.001092 0.000000 0
-0.001718 0.000000 0
-0.002157 0.000000 0
-0.002324 0.000000 0
-0.002197 0.000000 0
-0.001827 0.000000 0
-0.001325 0.000000 0
-0.000818 0.000000 0
-0.000386 0.000000 0
-0.000068 0.000000 0
0.000124 0.000000 0
0.000193 0.000000 0
0.000168 0.000000 0
0.000086 0.000000 0
-0.000029 0.000000 0
-0.000152 0.000000 0
-0.000265 0.000000 0
-0.000358 0.000000 0
-0.000428 0.000000 0
-0.000479 0.000000 0
-0.000513 0.000000 0
-0.000535 0.000000 0
-0.000548 0.000000 0
-0.000555 0.000000 0
-0.000558 0.000000 0
-0.000558 0.000000 0
-0.000558 0.000000 0
-0.000559 0.000000 0
-0.000565 0.000000 0
-0.000577 0.000000 0
-0.000598 0.000000 0
-0.000628 0.000000 0
-0.000665 0.000000 0
-0.000709 0.000000 0
-0.000759 0.000000 0
-0.000797 0.000000 0
1.000000 0.000005 0
0.999728 -0.006530 0
1.007192 -0.012794 0
1.020854 -0.019128 0
1.041000 -0.025523 0
1.067777 -0.031664 0
1.100864 -0.036906 0
1.139046 -0.040339 0
1.179921 -0.041033 0
1.219785 -0.038644 0
1.255242 -0.033733 0
1.284173 -0.027321 0
1.305723 -0.020405 0
1.319963 -0.013770 0
1.327611 -0.007986 0
1.329842 -0.003442 0
1.328125 -0.000384 0
1.324110 0.001076 0
1.319491 0.000969 0
1.315867 -0.000507 0
1.314585 -0.002973 0
1.316513 -0.005832 0
1.321755 -0.008268 0
1.329378 -0.009405 0
1.337432 -0.008603 0
1.343440 -0.005722 0
1.345178 -0.001161 0
1.341238 0.004363 0
1.331092 0.010099 0
1.314955 0.015427 0
1.293581 0.019904 0
1.268057 0.023253 0
1.239650 0.025324 0
1.209704 0.026050 0
1.179591 0.025409 0
1.150682 0.023404 0
1.124348 0.020053 0
1.101978 0.015371 0
1.085037 0.009360 0
1.075145 0.001939 0
1.074068 -0.007068 0
1.083422 -0.017568 0
1.104177 -0.028817 0
1.136188 -0.039495 0
1.178006 -0.048025 0
1.226888 -0.052905 0
1.278888 -0.052999 0
1.329112 -0.047853 0
1.372300 -0.037985 0
1.403788 -0.024968 0
1.420676 -0.011038 0
1.422690 0.001849 0
1.411687 0.012605 0
1.390245 0.020715 0
1.361294 0.025958 0
1.327814 0.028401 0
1.292560 0.028357 0
1.257862 0.026311 0
1.225516 0.022837 0
1.196784 0.018512 0
1.172496 0.013838 0
1.153225 0.009193 0
1.139448 0.004790 0
1.131612 0.000586 0
1.130023 -0.003655 0
1.134560 -0.007927 0
1.144454 -0.011773 0
1.158249 -0.014547 0
1.173948 -0.015722 0
1.189289 -0.015117 0
1.202102 -0.012990 0
1.210722 -0.009953 0
1.214331 -0.006743 0
1.212997 -0.003911 0
1.207298 -0.001742 0
1.198051 -0.000346 0
1.186183 0.000285 0
1.172612 0.000286 0
1.158187 -0.000136 0
1.143635 -0.000797 0
1.129552 -0.001542 0
1.116412 -0.002249 0
1.104580 -0.002846 0
1.094302 -0.003304 0
1.085701 -0.003625 0
1.078769 -0.003828 0
1.073382 -0.003937 0
1.069334 -0.003968 0
1.066377 -0.003938 0
1.064270 -0.003860 0
1.062809 -0.003743 0
1.061849 -0.003596 0
1.061294 -0.003433 0
1.061086 -0.003269 0
1.061190 -0.003121 0
1.061578 -0.003003 0
1.062219 -0.002931 0
1.063077 -0.002930 0
1.064122 -0.003101 0
1.065337 -0.003567 0
1.066671 -0.003933 0
1.000000 0.000001 0
1.000189 -0.011924 0
1.007707 -0.024109 0
1.021321 -0.036791 0
1.041686 -0.049907 0
1.069444 -0.062847 0
1.104856 -0.074252 0
1.147108 -0.082040 0
1.193721 -0.083722 0
1.238780 -0.078304 0
1.277529 -0.067372 0
1.307835 -0.053465 0
1.329319 -0.038773 0
1.342483 -0.024871 0
1.348354 -0.012862 0
1.348350 -0.003497 0
1.344148 0.002749 0
1.337577 0.005651 0
1.330541 0.005259 0
1.324881 0.001922 0
1.322254 -0.003629 0
1.323930 -0.010153 0
1.330333 -0.015848 0
1.340479 -0.018661 0
1.351785 -0.017046 0
1.360745 -0.010728 0
1.364281 -0.000781 0
1.360780 0.011102 0
1.349869 0.023300 0
1.332040 0.034528 0
1.308329 0.043915 0
1.280042 0.050948 0
1.248584 0.055370 0
1.215387 0.057076 0
1.181880 0.056039 0
1.149494 0.052260 0
1.119676 0.045721 0
1.093911 0.036328 0
1.073765 0.023849 0
1.060909 0.007985 0
1.056991 -0.011259 0
1.063239 -0.033092 0
1.080108 -0.055750 0
1.107200 -0.076812 0
1.143503 -0.093683 0
1.187394 -0.103865 0
1.236280 -0.105207 0
1.286313 -0.096395 0
1.332565 -0.077659 0
1.369676 -0.051360 0
1.392950 -0.021886 0
1.399865 0.006006 0
1.391467 0.029462 0
1.370481 0.047409 0
1.340079 0.059448 0
1.303494 0.065751 0
1.263751 0.066969 0
1.223484 0.064060 0
1.184866 0.058095 0
1.149628 0.050037 0
1.119163 0.040576 0
1.094644 0.030065 0
1.077087 0.018630 0
1.067265 0.006442 0
1.065404 -0.005931 0
1.070904 -0.017415 0
1.082419 -0.026673 0
1.098132 -0.032477 0
1.115974 -0.034024 0
1.133694 -0.031137 0
1.148915 -0.024416 0
1.159357 -0.015212 0
1.163308 -0.005259 0
1.160157 0.004049 0
1.150435 0.011963 0
1.135074 0.018133 0
1.115193 0.022456 0
1.091970 0.025012 0
1.066598 0.025994 0
1.040209 0.025652 0
1.013818 0.024240 0
0.988306 0.021989 0
0.964397 0.019127 0
0.942638 0.015896 0
0.923380 0.012550 0
0.906778 0.009335 0
0.892807 0.006451 0
0.881302 0.004022 0
0.872011 0.002081 0
0.864643 0.000585 0
0.858923 -0.000562 0
0.854615 -0.001468 0
0.851534 -0.002220 0
0.849533 -0.002880 0
0.848490 -0.003475 0
0.848282 -0.004011 0
0.848767 -0.004482 0
0.849778 -0.004886 0
0.851117 -0.005243 0
0.852511 -0.005532 0
0.853671 -0.005731 0
1.000000 -0.000001 0
1.000067 -0.017220 0
1.007048 -0.035161 0
1.019930 -0.054342 0
1.039883 -0.074881 0
1.068429 -0.096069 0
1.107068 -0.115804 0
1.156148 -0.130438 0
1.214227 -0.133939 0
1.268525 -0.123686 0
1.311806 -0.104022 0
1.343062 -0.080345 0
1.363400 -0.056288 0
1.374137 -0.034039 0
1.376702 -0.015086 0
1.372817 -0.000471 0
1.364323 0.009154 0
1.353306 0.013449 0
1.341999 0.012431 0
1.332575 0.006546 0
1.327033 -0.003257 0
1.327314 -0.015146 0
1.334725 -0.026051 0
1.348639 -0.032092 0
1.365754 -0.030104 0
1.380798 -0.019452 0
1.388713 -0.002431 0
1.387127 0.017540 0
1.376083 0.037605 0
1.356682 0.055732 0
1.330511 0.070667 0
1.299254 0.081764 0
1.264539 0.088745 0
1.227917 0.091520 0
1.190895 0.090068 0
1.154981 0.084375 0
1.121704 0.074401 0
1.092568 0.060046 0
1.068912 0.041128 0
1.051678 0.017479 0
1.041331 -0.010632 0
1.038209 -0.041919 0
1.042691 -0.074013 0
1.055217 -0.104125 0
1.076686 -0.129454 0
1.107825 -0.146916 0
1.147888 -0.153153 0
1.194050 -0.145373 0
1.241755 -0.122582 0
1.285428 -0.086587 0
1.319172 -0.042461 0
1.337844 0.002097 0
1.339645 0.040755 0
1.326941 0.070868 0
1.302852 0.091709 0
1.270742 0.103494 0
1.233879 0.107133 0
1.195263 0.103961 0
1.157545 0.095458 0
1.122986 0.082981 0
1.093399 0.067588 0
1.070051 0.050034 0
1.053524 0.030934 0
1.043656 0.011035 0
1.039734 -0.008529 0
1.041064 -0.026176 0
1.047002 -0.040235 0
1.056957 -0.049336 0
1.070351 -0.052519 0
1.086262 -0.049293 0
1.103059 -0.039887 0
1.118327 -0.025580 0
1.129227 -0.008777 0
1.133413 0.007727 0
1.130451 0.022106 0
1.121208 0.033661 0
1.106791 0.042155 0
1.088394 0.047647 0
1.067196 0.050391 0
1.044311 0.050749 0
1.020735 0.049127 0
0.997309 0.045937 0
0.974703 0.041587 0
0.953416 0.036479 0
0.933800 0.031001 0
0.916078 0.025511 0
0.900364 0.020305 0
0.886686 0.015594 0
0.874999 0.011486 0
0.865219 0.007992 0
0.857237 0.005051 0
0.850938 0.002559 0
0.846208 0.000414 0
0.842928 -0.001460 0
0.840961 -0.003104 0
0.840137 -0.004514 0
0.840244 -0.005661 0
0.841029 -0.006515 0
0.842210 -0.007068 0
0.843495 -0.007355 0
0.844712 -0.007548 0
1.000000 -0.000003 0
0.999631 -0.021955 0
1.005302 -0.045205 0
1.016229 -0.070860 0
1.034190 -0.099640 0
1.061959 -0.131267 0
1.103292 -0.163206 0
1.161476 -0.190433 0
1.240778 -0.197332 0
1.307120 -0.177118 0
1.352026 -0.143144 0
1.380205 -0.106292 0
1.396216 -0.071082 0
1.402216 -0.039408 0
1.399630 -0.012777 0
1.389929 0.007648 0
1.374913 0.021026 0
1.356994 0.026741 0
1.338867 0.024756 0
1.323105 0.015654 0
1.311853 0.000399 0
1.307216 -0.019079 0
1.312183 -0.038408 0
1.327703 -0.050924 0
1.350793 -0.050439 0
1.374789 -0.034922 0
1.391322 -0.008344 0
1.394865 0.022498 0
1.385874 0.052509 0
1.366587 0.078866 0
1.339438 0.100109 0
1.306579 0.115685 0
1.269819 0.125472 0
1.230742 0.129486 0
1.190845 0.127741 0
1.151631 0.120216 0
1.114638 0.106899 0
1.081310 0.087885 0
1.052589 0.063505 0
1.028301 0.034332 0
1.006991 0.000975 0
0.987177 -0.035687 0
0.970125 -0.073992 0
0.959945 -0.112041 0
0.961573 -0.147525 0
0.978087 -0.176302 0
1.008949 -0.192668 0
1.050626 -0.191496 0
1.098023 -0.170271 0
1.145599 -0.130011 0
1.187814 -0.075536 0
1.219209 -0.015701 0
1.235194 0.039131 0
1.236189 0.082967 0
1.224676 0.114411 0
1.203624 0.133490 0
1.176129 0.141214 0
1.145212 0.139160 0
1.113691 0.129138 0
1.084027 0.112949 0
1.058076 0.092276 0
1.036765 0.068706 0
1.019894 0.043790 0
1.006329 0.018997 0
0.994686 -0.004574 0
0.984443 -0.025917 0
0.977026 -0.043799 0
0.974417 -0.057060 0
0.978132 -0.064564 0
0.988521 -0.065080 0
1.004534 -0.057715 0
1.023897 -0.042614 0
1.043413 -0.021580 0
1.059424 0.001591 0
1.068883 0.022933 0
1.071460 0.040557 0
1.067989 0.054036 0
1.059468 0.063374 0
1.046961 0.068842 0
1.031525 0.070879 0
1.014154 0.070007 0
0.995727 0.066786 0
0.976989 0.061786 0
0.958530 0.055565 0
0.940795 0.048654 0
0.924097 0.041536 0
0.908640 0.034609 0
0.894553 0.028152 0
0.881924 0.022313 0
0.870831 0.017112 0
0.861353 0.012484 0
0.853568 0.008327 0
0.847530 0.004555 0
0.843240 0.001132 0
0.840616 -0.001919 0
0.839483 -0.004529 0
0.839569 -0.006609 0
0.840527 -0.008087 0
0.841970 -0.008943 0
0.843523 -0.009268 0
0.844885 -0.009461 0
1.000000 -0.000004 0
0.998842 -0.025505 0
1.002128 -0.052993 0
1.009155 -0.084464 0
1.022112 -0.121845 0
1.045068 -0.166406 0
1.085054 -0.216556 0
1.151727 -0.269159 0
1.267822 -0.280817 0
1.339930 -0.236168 0
1.372397 -0.178342 0
1.386944 -0.125770 0
1.393118 -0.079533 0
1.392099 -0.038688 0
1.383257 -0.004034 0
1.366298 0.023012 0
1.342759 0.040855 0
1.315392 0.048260 0
1.287492 0.045085 0
1.262146 0.032325 0
1.241520 0.011399 0
1.226662 -0.016710 0
1.220801 -0.047773 0
1.228846 -0.071936 0
1.251295 -0.078425 0
1.283564 -0.061216 0
1.315335 -0.023741 0
1.333761 0.021754 0
1.334926 0.064648 0
1.323029 0.100933 0
1.301650 0.129441 0
1.273309 0.150149 0
1.239809 0.163347 0
1.202603 0.169259 0
1.163059 0.167944 0
1.122597 0.159347 0
1.082724 0.143488 0
1.044794 0.120861 0
1.009112 0.092902 0
0.973688 0.061843 0
0.934915 0.029257 0
0.891756 -0.006288 0
0.849714 -0.048015 0
0.820158 -0.096808 0
0.810994 -0.148830 0
0.822429 -0.195526 0
0.850635 -0.226925 0
0.890582 -0.235681 0
0.937046 -0.218790 0
0.985113 -0.177613 0
1.030517 -0.117306 0
1.069389 -0.046517 0
1.097379 0.022540 0
1.111919 0.080152 0
1.114265 0.123041 0
1.106472 0.150807 0
1.090996 0.164310 0
1.070469 0.165165 0
1.047486 0.155410 0
1.024249 0.137361 0
1.001989 0.113616 0
0.980421 0.086982 0
0.957988 0.060136 0
0.933337 0.035008 0
0.907052 0.012122 0
0.881823 -0.009750 0
0.861542 -0.031443 0
0.850189 -0.051677 0
0.849339 -0.067857 0
0.858318 -0.076930 0
0.875369 -0.076497 0
0.898311 -0.065693 0
0.924661 -0.045539 0
0.951454 -0.018977 0
0.974864 0.008836 0
0.991745 0.033320 0
1.001846 0.052912 0
1.005863 0.067441 0
1.004645 0.077099 0
0.999121 0.082322 0
0.990222 0.083690 0
0.978828 0.081867 0
0.965724 0.077550 0
0.951576 0.071438 0
0.936926 0.064200 0
0.922207 0.056432 0
0.907770 0.048614 0
0.893928 0.041075 0
0.880986 0.033973 0
0.869259 0.027329 0
0.859060 0.021079 0
0.850668 0.015147 0
0.844281 0.009509 0
0.839977 0.004220 0
0.837683 -0.000582 0
0.837172 -0.004703 0
0.838065 -0.007940 0
0.839885 -0.010150 0
0.842126 -0.011298 0
0.844301 -0.011505 0
0.845897 -0.011568 0
1.000000 -0.000004 0
0.997678 -0.027067 0
0.997349 -0.056752 0
0.998000 -0.092079 0
1.001481 -0.136788 0
1.012083 -0.195442 0
1.039507 -0.271100 0
1.103512 -0.374436 0
1.268941 -0.386770 0
1.316517 -0.282928 0
1.304272 -0.191393 0
1.288727 -0.128248 0
1.279763 -0.077471 0
1.272991 -0.030781 0
1.259327 0.011789 0
1.235770 0.046911 0
1.203204 0.070697 0
1.164586 0.080774 0
1.123811 0.076767 0
1.084301 0.060391 0
1.047867 0.034648 0
1.015195 0.000405 0
0.988007 -0.041826 0
0.976641 -0.082652 0
0.990843 -0.106391 0
1.029396 -0.100197 0
1.082408 -0.059777 0
1.133546 0.001672 0
1.165771 0.062007 0
1.178960 0.110909 0
1.178816 0.148595 0
1.168261 0.176291 0
1.148993 0.194944 0
1.122351 0.205001 0
1.089609 0.206513 0
1.051954 0.199317 0
1.010050 0.183468 0
0.963211 0.160262 0
0.909224 0.133376 0
0.846994 0.107295 0
0.781161 0.081673 0
0.722684 0.048280 0
0.682298 -0.003629 0
0.664494 -0.074555 0
0.666898 -0.151030 0
0.684505 -0.217177 0
0.713371 -0.262055 0
0.750670 -0.279142 0
0.793463 -0.266037 0
0.838324 -0.224717 0
0.882017 -0.161046 0
0.921978 -0.083797 0
0.955694 -0.004633 0
0.979318 0.064847 0
0.992403 0.118624 0
0.995750 0.155525 0
0.990758 0.175983 0
0.979063 0.181436 0
0.962063 0.174123 0
0.940348 0.157211 0
0.913445 0.134870 0
0.880619 0.111472 0
0.842659 0.089640 0
0.803159 0.068699 0
0.767775 0.045706 0
0.741728 0.018358 0
0.727200 -0.013400 0
0.723884 -0.046091 0
0.730026 -0.073927 0
0.743691 -0.092345 0
0.763389 -0.098942 0
0.787985 -0.093140 0
0.816346 -0.075957 0
0.846993 -0.049846 0
0.877784 -0.018592 0
0.905128 0.012341 0
0.926315 0.038685 0
0.941190 0.059340 0
0.950244 0.074350 0
0.954137 0.084068 0
0.953615 0.089065 0
0.949436 0.090050 0
0.942327 0.087804 0
0.932945 0.083128 0
0.921878 0.076789 0
0.909663 0.069458 0
0.896822 0.061653 0
0.883896 0.053701 0
0.871458 0.045748 0
0.860103 0.037804 0
0.850387 0.029841 0
0.842759 0.021871 0
0.837494 0.014012 0
0.834652 0.006496 0
0.834063 -0.000349 0
0.835332 -0.006145 0
0.837907 -0.010556 0
0.841188 -0.013382 0
0.844588 -0.014592 0
0.847560 -0.014274 0
0.849386 -0.013933 0
1.000000 -0.000005 0
0.996247 -0.025838 0
0.991371 -0.054549 0
0.983489 -0.089830 0
0.972764 -0.137163 0
0.960741 -0.205667 0
0.953832 -0.309220 0
0.974237 -0.499827 0
1.134460 -0.495056 0
1.119922 -0.272734 0
1.016130 -0.151786 0
0.959907 -0.102494 0
0.937033 -0.065032 0
0.935708 -0.019487 0
0.925580 0.031952 0
0.900880 0.077901 0
0.860697 0.110805 0
0.805496 0.126418 0
0.737615 0.124135 0
0.663545 0.107035 0
0.596463 0.079270 0
0.551585 0.041916 0
0.537339 -0.010453 0
0.551647 -0.076007 0
0.590457 -0.132414 0
0.650122 -0.154015 0
0.726092 -0.129126 0
0.810912 -0.062844 0
0.888689 0.018000 0
0.943576 0.086653 0
0.977743 0.138906 0
0.995826 0.178738 0
0.999667 0.208023 0
0.990524 0.227408 0
0.969377 0.237106 0
0.936554 0.237672 0
0.891154 0.230996 0
0.831435 0.220453 0
0.758052 0.207885 0
0.679236 0.188672 0
0.611096 0.152333 0
0.568507 0.091340 0
0.555192 0.008941 0
0.562062 -0.082643 0
0.577804 -0.170076 0
0.597514 -0.243233 0
0.620900 -0.294325 0
0.649225 -0.317008 0
0.682920 -0.307678 0
0.720471 -0.267401 0
0.759123 -0.202195 0
0.796324 -0.121428 0
0.830144 -0.036034 0
0.857633 0.042208 0
0.876618 0.105374 0
0.886660 0.151217 0
0.887825 0.179762 0
0.880184 0.192625 0
0.863384 0.192890 0
0.836709 0.184746 0
0.800211 0.172110 0
0.756611 0.156533 0
0.712111 0.136362 0
0.674440 0.108658 0
0.649264 0.072319 0
0.638109 0.029591 0
0.638905 -0.014834 0
0.647187 -0.055737 0
0.659684 -0.088899 0
0.675177 -0.111527 0
0.693640 -0.122025 0
0.715409 -0.119885 0
0.740608 -0.105782 0
0.768813 -0.081650 0
0.798953 -0.050532 0
0.829196 -0.016444 0
0.856268 0.015615 0
0.877979 0.042277 0
0.894161 0.062917 0
0.905075 0.077717 0
0.911166 0.087157 0
0.912972 0.091921 0
0.911064 0.092807 0
0.906025 0.090653 0
0.898449 0.086247 0
0.888976 0.080252 0
0.878311 0.073148 0
0.867243 0.065204 0
0.856607 0.056531 0
0.847218 0.047167 0
0.839768 0.037189 0
0.834735 0.026805 0
0.832321 0.016382 0
0.832431 0.006417 0
0.834678 -0.002497 0
0.838426 -0.009781 0
0.842997 -0.015030 0
0.847768 -0.018065 0
0.852181 -0.018904 0
0.855733 -0.017537 0
0.857632 -0.016470 0
1.000000 -0.000004 0
0.994846 -0.021421 0
0.985449 -0.045228 0
0.968715 -0.074707 0
0.942021 -0.115274 0
0.900649 -0.177745 0
0.835994 -0.285830 0
0.732967 -0.556299 0
0.549567 -0.533690 0
-0.000160 -0.165832 0
0.398146 -0.032612 0
0.327119 -0.050386 0
0.339322 -0.054506 0
0.378308 -0.020563 0
0.407721 0.045382 0
0.402284 0.110560 0
0.370546 0.164847 0
0.315752 0.202622 0
0.244923 0.217483 0
0.172841 0.200308 0
0.121772 0.145374 0
0.111461 0.058295 0
0.144764 -0.043122 0
0.200193 -0.137004 0
0.263945 -0.206101 0
0.333933 -0.237067 0
0.413043 -0.221801 0
0.503143 -0.162159 0
0.600822 -0.071891 0
0.689104 0.020620 0
0.754129 0.095110 0
0.798012 0.153133 0
0.823037 0.199012 0
0.829991 0.234056 0
0.819093 0.259248 0
0.790012 0.276307 0
0.742731 0.287352 0
0.680378 0.292129 0
0.612819 0.284341 0
0.555622 0.253016 0
0.521640 0.191168 0
0.513105 0.102949 0
0.522744 0.001581 0
0.539672 -0.098401 0
0.556061 -0.187716 0
0.569314 -0.261508 0
0.580684 -0.315001 0
0.593720 -0.342396 0
0.612051 -0.338516 0
0.636987 -0.302155 0
0.666838 -0.238134 0
0.698474 -0.156052 0
0.729037 -0.067177 0
0.755990 0.017138 0
0.776096 0.088362 0
0.787878 0.143084 0
0.790228 0.181225 0
0.782097 0.204643 0
0.762793 0.216364 0
0.733047 0.219150 0
0.696396 0.213734 0
0.659317 0.198338 0
0.629006 0.170576 0
0.610171 0.130311 0
0.603489 0.080802 0
0.606576 0.027482 0
0.615840 -0.023712 0
0.627626 -0.068104 0
0.639918 -0.103151 0
0.652282 -0.127536 0
0.665376 -0.140408 0
0.680388 -0.141343 0
0.698430 -0.130596 0
0.720018 -0.109425 0
0.744819 -0.080210 0
0.771711 -0.046208 0
0.798779 -0.011333 0
0.823053 0.020213 0
0.842867 0.046020 0
0.857943 0.065829 0
0.868373 0.079934 0
0.874436 0.088917 0
0.876531 0.093516 0
0.875157 0.094508 0
0.870933 0.092604 0
0.864614 0.088362 0
0.857084 0.082151 0
0.849320 0.074171 0
0.842295 0.064538 0
0.836866 0.053410 0
0.833658 0.041089 0
0.832979 0.028084 0
0.834800 0.015082 0
0.838764 0.002904 0
0.844159 -0.007578 0
0.850230 -0.015698 0
0.856348 -0.021133 0
0.862019 -0.023800 0
0.866837 -0.023792 0
0.870447 -0.020960 0
0.872143 -0.018941 0
1.000000 -0.000004 0
0.993876 -0.014270 0
0.981349 -0.029653 0
0.958491 -0.047637 0
0.920725 -0.070330 0
0.858858 -0.100875 0
0.753235 -0.142772 0
0.560743 -0.214634 0
0.072530 -0.000372 0
-0.529430 0.132485 0
0.000000 0.000060 0
-0.032400 -0.056786 0
-0.059807 -0.117455 0
-0.041041 -0.089120 0
-0.019592 0.006742 0
-0.007653 0.113841 0
-0.014792 0.196102 0
-0.037768 0.250807 0
-0.065154 0.265812 0
-0.080927 0.228952 0
-0.065826 0.139415 0
-0.017737 0.017689 0
0.037727 -0.100418 0
0.088944 -0.196422 0
0.135237 -0.267388 0
0.181133 -0.304347 0
0.234223 -0.299571 0
0.300734 -0.251858 0
0.381820 -0.169196 0
0.471406 -0.067888 0
0.551300 0.028763 0
0.610001 0.108595 0
0.648079 0.174809 0
0.665726 0.230118 0
0.662885 0.275851 0
0.640467 0.312799 0
0.602454 0.339396 0
0.558126 0.349131 0
0.521096 0.331406 0
0.502926 0.278617 0
0.506353 0.193616 0
0.525564 0.089002 0
0.551428 -0.018861 0
0.574520 -0.117194 0
0.590081 -0.200952 0
0.596445 -0.269090 0
0.594876 -0.319965 0
0.589722 -0.349610 0
0.587285 -0.352180 0
0.592829 -0.323422 0
0.607647 -0.264915 0
0.629083 -0.184862 0
0.652992 -0.094784 0
0.675628 -0.006085 0
0.693119 0.072251 0
0.703141 0.135851 0
0.704085 0.184309 0
0.695073 0.218826 0
0.676771 0.240707 0
0.652307 0.249908 0
0.627216 0.244606 0
0.607630 0.222689 0
0.597648 0.184273 0