# vtk DataFile Version 2.0
generated by CFD-lab course output (written by Tobias Neckel) 
ASCII

DATASET STRUCTURED_GRID
DIMENSIONS  101 21 1 
POINTS 2121 float

0.000000 0.000000 0
0.100000 0.000000 0
0.200000 0.000000 0
0.300000 0.000000 0
0.400000 0.000000 0
0.500000 0.000000 0
0.600000 0.000000 0
0.700000 0.000000 0
0.800000 0.000000 0
0.900000 0.000000 0
1.000000 0.000000 0
1.100000 0.000000 0
1.200000 0.000000 0
1.300000 0.000000 0
1.400000 0.000000 0
1.500000 0.000000 0
1.600000 0.000000 0
1.700000 0.000000 0
1.800000 0.000000 0
1.900000 0.000000 0
2.000000 0.000000 0
2.100000 0.000000 0
2.200000 0.000000 0
2.300000 0.000000 0
2.400000 0.000000 0
2.500000 0.000000 0
2.600000 0.000000 0
2.700000 0.000000 0
2.800000 0.000000 0
2.900000 0.000000 0
3.000000 0.000000 0
3.100000 0.000000 0
3.200000 0.000000 0
3.300000 0.000000 0
3.400000 0.000000 0
3.500000 0.000000 0
3.600000 0.000000 0
3.700000 0.000000 0
3.800000 0.000000 0
3.900000 0.000000 0
4.000000 0.000000 0
4.100000 0.000000 0
4.200000 0.000000 0
4.300000 0.000000 0
4.400000 0.000000 0
4.500000 0.000000 0
4.600000 0.000000 0
4.700000 0.000000 0
4.800000 0.000000 0
4.900000 0.000000 0
5.000000 0.000000 0
5.100000 0.000000 0
5.200000 0.000000 0
5.300000 0.000000 0
5.400000 0.000000 0
5.500000 0.000000 0
5.600000 0.000000 0
5.700000 0.000000 0
5.800000 0.000000 0
5.900000 0.000000 0
6.000000 0.000000 0
6.100000 0.000000 0
6.200000 0.000000 0
6.300000 0.000000 0
6.400000 0.000000 0
6.500000 0.000000 0
6.600000 0.000000 0
6.700000 0.000000 0
6.800000 0.000000 0
6.900000 0.000000 0
7.000000 0.000000 0
7.100000 0.000000 0
7.200000 0.000000 0
7.300000 0.000000 0
7.400000 0.000000 0
7.500000 0.000000 0
7.600000 0.000000 0
7.700000 0.000000 0
7.800000 0.000000 0
7.900000 0.000000 0
8.000000 0.000000 0
8.100000 0.000000 0
8.200000 0.000000 0
8.300000 0.000000 0
8.400000 0.000000 0
8.500000 0.000000 0
8.600000 0.000000 0
8.700000 0.000000 0
8.800000 0.000000 0
8.900000 0.000000 0
9.000000 0.000000 0
9.100000 0.000000 0
9.200000 0.000000 0
9.300000 0.000000 0
9.400000 0.000000 0
9.500000 0.000000 0
9.600000 0.000000 0
9.700000 0.000000 0
9.800000 0.000000 0
9.900000 0.000000 0
10.000000 0.000000 0
0.000000 0.100000 0
0.100000 0.100000 0
0.200000 0.100000 0
0.300000 0.100000 0
0.400000 0.100000 0
0.500000 0.100000 0
0.600000 0.100000 0
0.700000 0.100000 0
0.800000 0.100000 0
0.900000 0.100000 0
1.000000 0.100000 0
1.100000 0.100000 0
1.200000 0.100000 0
1.300000 0.100000 0
1.400000 0.100000 0
1.500000 0.100000 0
1.600000 0.100000 0
1.700000 0.100000 0
1.800000 0.100000 0
1.900000 0.100000 0
2.000000 0.100000 0
2.100000 0.100000 0
2.200000 0.100000 0
2.300000 0.100000 0
2.400000 0.100000 0
2.500000 0.100000 0
2.600000 0.100000 0
2.700000 0.100000 0
2.800000 0.100000 0
2.900000 0.100000 0
3.000000 0.100000 0
3.100000 0.100000 0
3.200000 0.100000 0
3.300000 0.100000 0
3.400000 0.100000 0
3.500000 0.100000 0
3.600000 0.100000 0
3.700000 0.100000 0
3.800000 0.100000 0
3.900000 0.100000 0
4.000000 0.100000 0
4.100000 0.100000 0
4.200000 0.100000 0
4.300000 0.100000 0
4.400000 0.100000 0
4.500000 0.100000 0
4.600000 0.100000 0
4.700000 0.100000 0
4.800000 0.100000 0
4.900000 0.100000 0
5.000000 0.100000 0
5.100000 0.100000 0
5.200000 0.100000 0
5.300000 0.100000 0
5.400000 0.100000 0
5.500000 0.100000 0
5.600000 0.100000 0
5.700000 0.100000 0
5.800000 0.100000 0
5.900000 0.100000 0
6.000000 0.100000 0
6.100000 0.100000 0
6.200000 0.100000 0
6.300000 0.100000 0
6.400000 0.100000 0
6.500000 0.100000 0
6.600000 0.100000 0
6.700000 0.100000 0
6.800000 0.100000 0
6.900000 0.100000 0
7.000000 0.100000 0
7.100000 0.100000 0
7.200000 0.100000 0
7.300000 0.100000 0
7.400000 0.100000 0
7.500000 0.100000 0
7.600000 0.100000 0
7.700000 0.100000 0
7.800000 0.100000 0
7.900000 0.100000 0
8.000000 0.100000 0
8.100000 0.100000 0
8.200000 0.100000 0
8.300000 0.100000 0
8.400000 0.100000 0
8.500000 0.100000 0
8.600000 0.100000 0
8.700000 0.100000 0
8.800000 0.100000 0
8.900000 0.100000 0
9.000000 0.100000 0
9.100000 0.100000 0
9.200000 0.100000 0
9.300000 0.100000 0
9.400000 0.100000 0
9.500000 0.100000 0
9.600000 0.100000 0
9.700000 0.100000 0
9.800000 0.100000 0
9.900000 0.100000 0
10.000000 0.100000 0
0.000000 0.200000 0
0.100000 0.200000 0
0.200000 0.200000 0
0.300000 0.200000 0
0.400000 0.200000 0
0.500000 0.200000 0
0.600000 0.200000 0
0.700000 0.200000 0
0.800000 0.200000 0
0.900000 0.200000 0
1.000000 0.200000 0
1.100000 0.200000 0
1.200000 0.200000 0
1.300000 0.200000 0
1.400000 0.200000 0
1.500000 0.200000 0
1.600000 0.200000 0
1.700000 0.200000 0
1.800000 0.200000 0
1.900000 0.200000 0
2.000000 0.200000 0
2.100000 0.200000 0
2.200000 0.200000 0
2.300000 0.200000 0
2.400000 0.200000 0
2.500000 0.200000 0
2.600000 0.200000 0
2.700000 0.200000 0
2.800000 0.200000 0
2.900000 0.200000 0
3.000000 0.200000 0
3.100000 0.200000 0
3.200000 0.200000 0
3.300000 0.200000 0
3.400000 0.200000 0
3.500000 0.200000 0
3.600000 0.200000 0
3.700000 0.200000 0
3.800000 0.200000 0
3.900000 0.200000 0
4.000000 0.200000 0
4.100000 0.200000 0
4.200000 0.200000 0
4.300000 0.200000 0
4.400000 0.200000 0
4.500000 0.200000 0
4.600000 0.200000 0
4.700000 0.200000 0
4.800000 0.200000 0
4.900000 0.200000 0
5.000000 0.200000 0
5.100000 0.200000 0
5.200000 0.200000 0
5.300000 0.200000 0
5.400000 0.200000 0
5.500000 0.200000 0
5.600000 0.200000 0
5.700000 0.200000 0
5.800000 0.200000 0
5.900000 0.200000 0
6.000000 0.200000 0
6.100000 0.200000 0
6.200000 0.200000 0
6.300000 0.200000 0
6.400000 0.200000 0
6.500000 0.200000 0
6.600000 0.200000 0
6.700000 0.200000 0
6.800000 0.200000 0
6.900000 0.200000 0
7.000000 0.200000 0
7.100000 0.200000 0
7.200000 0.200000 0
7.300000 0.200000 0
7.400000 0.200000 0
7.500000 0.200000 0
7.600000 0.200000 0
7.700000 0.200000 0
7.800000 0.200000 0
7.900000 0.200000 0
8.000000 0.200000 0
8.100000 0.200000 0
8.200000 0.200000 0
8.300000 0.200000 0
8.400000 0.200000 0
8.500000 0.200000 0
8.600000 0.200000 0
8.700000 0.200000 0
8.800000 0.200000 0
8.900000 0.200000 0
9.000000 0.200000 0
9.100000 0.200000 0
9.200000 0.200000 0
9.300000 0.200000 0
9.400000 0.200000 0
9.500000 0.200000 0
9.600000 0.200000 0
9.700000 0.200000 0
9.800000 0.200000 0
9.900000 0.200000 0
10.000000 0.200000 0
0.000000 0.300000 0
0.100000 0.300000 0
0.200000 0.300000 0
0.300000 0.300000 0
0.400000 0.300000 0
0.500000 0.300000 0
0.600000 0.300000 0
0.700000 0.300000 0
0.800000 0.300000 0
0.900000 0.300000 0
1.000000 0.300000 0
1.100000 0.300000 0
1.200000 0.300000 0
1.300000 0.300000 0
1.400000 0.300000 0
1.500000 0.300000 0
1.600000 0.300000 0
1.700000 0.300000 0
1.800000 0.300000 0
1.900000 0.300000 0
2.000000 0.300000 0
2.100000 0.300000 0
2.200000 0.300000 0
2.300000 0.300000 0
2.400000 0.300000 0
2.500000 0.300000 0
2.600000 0.300000 0
2.700000 0.300000 0
2.800000 0.300000 0
2.900000 0.300000 0
3.000000 0.300000 0
3.100000 0.300000 0
3.200000 0.300000 0
3.300000 0.300000 0
3.400000 0.300000 0
3.500000 0.300000 0
3.600000 0.300000 0
3.700000 0.300000 0
3.800000 0.300000 0
3.900000 0.300000 0
4.000000 0.300000 0
4.100000 0.300000 0
4.200000 0.300000 0
4.300000 0.300000 0
4.400000 0.300000 0
4.500000 0.300000 0
4.600000 0.300000 0
4.700000 0.300000 0
4.800000 0.300000 0
4.900000 0.300000 0
5.000000 0.300000 0
5.100000 0.300000 0
5.200000 0.300000 0
5.300000 0.300000 0
5.400000 0.300000 0
5.500000 0.300000 0
5.600000 0.300000 0
5.700000 0.300000 0
5.800000 0.300000 0
5.900000 0.300000 0
6.000000 0.300000 0
6.100000 0.300000 0
6.200000 0.300000 0
6.300000 0.300000 0
6.400000 0.300000 0
6.500000 0.300000 0
6.600000 0.300000 0
6.700000 0.300000 0
6.800000 0.300000 0
6.900000 0.300000 0
7.000000 0.300000 0
7.100000 0.300000 0
7.200000 0.300000 0
7.300000 0.300000 0
7.400000 0.300000 0
7.500000 0.300000 0
7.600000 0.300000 0
7.700000 0.300000 0
7.800000 0.300000 0
7.900000 0.300000 0
8.000000 0.300000 0
8.100000 0.300000 0
8.200000 0.300000 0
8.300000 0.300000 0
8.400000 0.300000 0
8.500000 0.300000 0
8.600000 0.300000 0
8.700000 0.300000 0
8.800000 0.300000 0
8.900000 0.300000 0
9.000000 0.300000 0
9.100000 0.300000 0
9.200000 0.300000 0
9.300000 0.300000 0
9.400000 0.300000 0
9.500000 0.300000 0
9.600000 0.300000 0
9.700000 0.300000 0
9.800000 0.300000 0
9.900000 0.300000 0
10.000000 0.300000 0
0.000000 0.400000 0
0.100000 0.400000 0
0.200000 0.400000 0
0.300000 0.400000 0
0.400000 0.400000 0
0.500000 0.400000 0
0.600000 0.400000 0
0.700000 0.400000 0
0.800000 0.400000 0
0.900000 0.400000 0
1.000000 0.400000 0
1.100000 0.400000 0
1.200000 0.400000 0
1.300000 0.400000 0
1.400000 0.400000 0
1.500000 0.400000 0
1.600000 0.400000 0
1.700000 0.400000 0
1.800000 0.400000 0
1.900000 0.400000 0
2.000000 0.400000 0
2.100000 0.400000 0
2.200000 0.400000 0
2.300000 0.400000 0
2.400000 0.400000 0
2.500000 0.400000 0
2.600000 0.400000 0
2.700000 0.400000 0
2.800000 0.400000 0
2.900000 0.400000 0
3.000000 0.400000 0
3.100000 0.400000 0
3.200000 0.400000 0
3.300000 0.400000 0
3.400000 0.400000 0
3.500000 0.400000 0
3.600000 0.400000 0
3.700000 0.400000 0
3.800000 0.400000 0
3.900000 0.400000 0
4.000000 0.400000 0
4.100000 0.400000 0
4.200000 0.400000 0
4.300000 0.400000 0
4.400000 0.400000 0
4.500000 0.400000 0
4.600000 0.400000 0
4.700000 0.400000 0
4.800000 0.400000 0
4.900000 0.400000 0
5.000000 0.400000 0
5.100000 0.400000 0
5.200000 0.400000 0
5.300000 0.400000 0
5.400000 0.400000 0
5.500000 0.400000 0
5.600000 0.400000 0
5.700000 0.400000 0
5.800000 0.400000 0
5.900000 0.400000 0
6.000000 0.400000 0
6.100000 0.400000 0
6.200000 0.400000 0
6.300000 0.400000 0
6.400000 0.400000 0
6.500000 0.400000 0
6.600000 0.400000 0
6.700000 0.400000 0
6.800000 0.400000 0
6.900000 0.400000 0
7.000000 0.400000 0
7.100000 0.400000 0
7.200000 0.400000 0
7.300000 0.400000 0
7.400000 0.400000 0
7.500000 0.400000 0
7.600000 0.400000 0
7.700000 0.400000 0
7.800000 0.400000 0
7.900000 0.400000 0
8.000000 0.400000 0
8.100000 0.400000 0
8.200000 0.400000 0
8.300000 0.400000 0
8.400000 0.400000 0
8.500000 0.400000 0
8.600000 0.400000 0
[...]
POINT_DATA 2121 

VECTORS velocity float
0.500000 0.000000 0
-0.000001 0.000000 0
-0.000004 0.000000 0
-0.000009 0.000000 0
-0.000022 0.000000 0
-0.000041 0.000000 0
-0.000069 0.000000 0
-0.000106 0.000000 0
-0.000155 0.000000 0
-0.000211 0.000000 0
-0.000274 0.000000 0
-0.000333 0.000000 0
-0.000378 0.000000 0
-0.000389 0.000000 0
-0.000342 0.000000 0
-0.000215 0.000000 0
0.000001 0.000000 0
0.000297 0.000000 0
0.000649 0.000000 0
0.001019 0.000000 0
0.001367 0.000000 0
0.001650 0.000000 0
0.001834 0.000000 0
0.001892 0.000000 0
0.001804 0.000000 0
0.001561 0.000000 0
0.001160 0.000000 0
0.000607 0.000000 0
-0.000088 0.000000 0
-0.000912 0.000000 0
-0.001839 0.000000 0
-0.002783 0.000000 0
-0.003611 0.000000 0
-0.004167 0.000000 0
-0.004300 0.000000 0
-0.003925 0.000000 0
-0.003068 0.000000 0
-0.001882 0.000000 0
-0.000588 0.000000 0
0.000682 0.000000 0
0.001827 0.000000 0
0.002783 0.000000 0
0.003518 0.000000 0
0.004021 0.000000 0
0.004300 0.000000 0
0.004364 0.000000 0
0.004223 0.000000 0
0.003884 0.000000 0
0.003347 0.000000 0
0.002606 0.000000 0
0.001651 0.000000 0
0.000478 0.000000 0
-0.000850 0.000000 0
-0.002181 0.000000 0
-0.003443 0.000000 0
-0.004577 0.000000 0
-0.005514 0.000000 0
-0.006164 0.000000 0
-0.006421 0.000000 0
-0.006171 0.000000 0
-0.005336 0.000000 0
-0.003936 0.000000 0
-0.002153 0.000000 0
-0.000282 0.000000 0
0.001508 0.000000 0
0.003126 0.000000 0
0.004478 0.000000 0
0.005488 0.000000 0
0.006109 0.000000 0
0.006316 0.000000 0
0.006109 0.000000 0
0.005504 0.000000 0
0.004542 0.000000 0
0.003288 0.000000 0
0.001843 0.000000 0
0.000355 0.000000 0
-0.000942 0.000000 0
-0.001956 0.000000 0
-0.002740 0.000000 0
-0.003357 0.000000 0
-0.003862 0.000000 0
-0.004283 0.000000 0
-0.004620 0.000000 0
-0.004832 0.000000 0
-0.004843 0.000000 0
-0.004555 0.000000 0
-0.003881 0.000000 0
-0.002793 0.000000 0
-0.001374 0.000000 0
0.000202 0.000000 0
0.001823 0.000000 0
0.003416 0.000000 0
0.004877 0.000000 0
0.006082 0.000000 0
0.006895 0.000000 0
0.007197 0.000000 0
0.006929 0.000000 0
0.006145 0.000000 0
0.005039 0.000000 0
0.003926 0.000000 0
0.003391 0.000000 0
1.000000 -0.000001 0
1.002530 -0.004574 0
1.010393 -0.009961 0
1.024006 -0.015864 0
1.043834 -0.022095 0
1.070206 -0.028296 0
1.103002 -0.033833 0
1.141252 -0.037822 0
1.182851 -0.039359 0
1.224448 -0.038110 0
1.262980 -0.034601 0
1.296602 -0.029761 0
1.324625 -0.024415 0
1.347072 -0.019051 0
1.364232 -0.013814 0
1.376325 -0.008639 0
1.383344 -0.003415 0
1.385112 0.001900 0
1.381454 0.007229 0
1.372362 0.012381 0
1.358119 0.017078 0
1.339345 0.021028 0
1.316961 0.023975 0
1.292122 0.025728 0
1.266135 0.026168 0
1.240388 0.025246 0
1.216279 0.022971 0
1.195157 0.019402 0
1.178285 0.014622 0
1.166813 0.008725 0
1.161748 0.001875 0
1.163849 -0.005422 0
1.173362 -0.012276 0
1.189624 -0.017629 0
1.210749 -0.020428 0
1.233705 -0.019968 0
1.254838 -0.016223 0
1.270745 -0.009952 0
1.279105 -0.002386 0
1.279037 0.005421 0
1.270786 0.012773 0
1.255265 0.019161 0
1.233769 0.024284 0
1.207764 0.028010 0
1.178743 0.030316 0
1.148153 0.031230 0
1.117384 0.030792 0
1.087766 0.029029 0
1.060589 0.025941 0
1.037102 0.021485 0
1.018479 0.015595 0
1.005749 0.008282 0
0.999702 -0.000034 0
1.000867 -0.008551 0
1.009448 -0.016611 0
1.025285 -0.023787 0
1.047789 -0.029659 0
1.075918 -0.033750 0
1.108169 -0.035520 0
1.142503 -0.034412 0
1.176271 -0.030035 0
1.206298 -0.022484 0
1.229258 -0.012639 0
1.242379 -0.001939 0
1.244305 0.008485 0
1.235463 0.018020 0
1.217110 0.026156 0
1.190996 0.032454 0
1.159227 0.036595 0
1.124118 0.038386 0
1.088073 0.037746 0
1.053446 0.034703 0
1.022398 0.029410 0
0.996706 0.022198 0
0.977557 0.013637 0
0.965409 0.004636 0
0.960056 -0.003550 0
0.960880 -0.010133 0
0.966951 -0.015189 0
0.977386 -0.019071 0
0.991491 -0.022113 0
1.008783 -0.024537 0
1.028936 -0.026394 0
1.051630 -0.027531 0
1.076340 -0.027592 0
1.102134 -0.026096 0
1.127551 -0.022610 0
1.150638 -0.016996 0
1.169144 -0.009643 0
1.180895 -0.001365 0
1.184377 0.007108 0
1.179344 0.015285 0
1.166463 0.022619 0
1.146980 0.028436 0
1.122724 0.032010 0
1.096039 0.032684 0
1.069572 0.030113 0
1.045891 0.024542 0
1.026963 0.016891 0
1.013704 0.010265 0
1.005071 0.007296 0
1.000000 -0.000000 0
1.002843 -0.010408 0
1.011152 -0.021489 0
1.025289 -0.033457 0
1.045941 -0.046216 0
1.073856 -0.059180 0
1.109452 -0.071053 0
1.152146 -0.079848 0
1.199776 -0.083185 0
1.246874 -0.080113 0
1.289095 -0.072140 0
1.324654 -0.061634 0
1.353501 -0.050464 0
1.376337 -0.039602 0
1.393963 -0.029243 0
1.406857 -0.019102 0
1.414995 -0.008781 0
1.417942 0.001895 0
1.415278 0.012753 0
1.406811 0.023335 0
1.392768 0.033014 0
1.373809 0.041152 0
1.350947 0.047216 0
1.325436 0.050817 0
1.298676 0.051722 0
1.272128 0.049842 0
1.247238 0.045217 0
1.225373 0.037980 0
1.207780 0.028332 0
1.195590 0.016528 0
1.189858 0.002960 0
1.191599 -0.011613 0
1.201556 -0.025769 0
1.219515 -0.037376 0
1.243805 -0.044069 0
1.271257 -0.044076 0
1.297639 -0.037030 0
1.318580 -0.024261 0
1.330825 -0.008288 0
1.333239 0.008322 0
1.326500 0.023775 0
1.311931 0.037019 0
1.291145 0.047501 0
1.265796 0.055027 0
1.237454 0.059610 0
1.207560 0.061357 0
1.177434 0.060385 0
1.148293 0.056791 0
1.121260 0.050659 0
1.097341 0.042105 0
1.077359 0.031348 0
1.061887 0.018771 0
1.051281 0.004875 0
1.045980 -0.009752 0
1.046512 -0.024422 0
1.053173 -0.038344 0
1.065964 -0.050634 0
1.084680 -0.060378 0
1.108964 -0.066580 0
1.138097 -0.068096 0
1.170643 -0.063788 0
1.204174 -0.052979 0
1.235244 -0.036075 0
1.259745 -0.015042 0
1.273993 0.006921 0
1.276632 0.027198 0
1.268746 0.044467 0
1.252060 0.057883 0
1.228639 0.066877 0
1.200715 0.071151 0
1.170525 0.070670 0
1.140154 0.065673 0
1.111367 0.056738 0
1.085467 0.044838 0
1.063209 0.031293 0
1.044862 0.017497 0
1.030482 0.004525 0
1.020272 -0.006899 0
1.014221 -0.016511 0
1.012069 -0.024545 0
1.013607 -0.031403 0
1.018832 -0.037452 0
1.027967 -0.042855 0
1.041304 -0.047415 0
1.058920 -0.050517 0
1.080428 -0.051225 0
1.104859 -0.048521 0
1.130655 -0.041611 0
1.155704 -0.030276 0
1.177453 -0.015254 0
1.193347 0.001530 0
1.201734 0.017892 0
1.202687 0.032340 0
1.197209 0.043716 0
1.186703 0.050918 0
1.172814 0.053127 0
1.157197 0.050123 0
1.141312 0.042584 0
1.126291 0.032163 0
1.112862 0.021867 0
1.103289 0.016537 0
1.000000 -0.000000 0
1.002437 -0.015737 0
1.009901 -0.032414 0
1.023038 -0.050661 0
1.043018 -0.070664 0
1.071420 -0.091807 0
1.109858 -0.112117 0
1.158868 -0.128132 0
1.217280 -0.134076 0
1.272941 -0.127424 0
1.319015 -0.112381 0
1.354850 -0.094174 0
1.382140 -0.076104 0
1.402974 -0.059509 0
1.419116 -0.044331 0
1.431568 -0.029671 0
1.440220 -0.014499 0
1.443983 0.001615 0
1.441778 0.018357 0
1.433017 0.034887 0
1.417829 0.050076 0
1.396992 0.062843 0
1.371706 0.072342 0
1.343409 0.077993 0
1.313667 0.079471 0
1.284079 0.076678 0
1.256191 0.069721 0
1.231421 0.058855 0
1.210997 0.044404 0
1.195985 0.026650 0
1.187453 0.005871 0
1.186702 -0.017111 0
1.195027 -0.040183 0
1.212699 -0.059871 0
1.238480 -0.072164 0
1.269676 -0.073799 0
1.302151 -0.063547 0
1.330574 -0.043141 0
1.349656 -0.017047 0
1.356448 0.009746 0
1.351825 0.034080 0
1.337974 0.054514 0
1.317188 0.070418 0
1.291544 0.081700 0
1.262807 0.088551 0
1.232439 0.091248 0
1.201659 0.090057 0
1.171514 0.085200 0
1.142919 0.076890 0
1.116672 0.065384 0
1.093432 0.051046 0
1.073694 0.034358 0
1.057743 0.015872 0
1.045614 -0.003783 0
1.037255 -0.023803 0
1.032864 -0.043236 0
1.032965 -0.061163 0
1.038513 -0.076746 0
1.050770 -0.088932 0
1.070592 -0.096087 0
1.097725 -0.096108 0
1.130522 -0.087082 0
1.166020 -0.068208 0
1.200176 -0.040688 0
1.228247 -0.008403 0
1.245888 0.023265 0
1.252114 0.050727 0
1.248268 0.072560 0
1.236132 0.087939 0
1.217678 0.096499 0
1.194878 0.098306 0
1.169538 0.093860 0
1.143200 0.084096 0
1.117098 0.070355 0
1.092200 0.054240 0
1.069255 0.037361 0
1.048744 0.021038 0
1.030788 0.006127 0
1.015373 -0.006987 0
1.002489 -0.018459 0
0.992508 -0.028879 0
0.986329 -0.038901 0
0.985083 -0.048871 0
0.989745 -0.058489 0
1.000700 -0.066721 0
1.017580 -0.072041 0
1.039370 -0.072842 0
1.064629 -0.067847 0
1.091659 -0.056447 0
1.118576 -0.039014 0
1.143255 -0.017179 0
1.163293 0.005939 0
1.177024 0.027138 0
1.184538 0.044414 0
1.186519 0.056399 0
1.183847 0.062184 0
1.177457 0.061610 0
1.168289 0.055443 0
1.157374 0.045336 0
1.145923 0.033262 0
1.136742 0.026337 0
1.000000 -0.000001 0
1.001899 -0.020321 0
1.007875 -0.042097 0
1.018848 -0.066578 0
1.036585 -0.094599 0
1.063875 -0.126016 0
1.104520 -0.158491 0
1.161907 -0.187261 0
1.240378 -0.197254 0
1.306912 -0.181849 0
1.353158 -0.154053 0
1.383895 -0.124765 0
1.404514 -0.098587 0
1.419082 -0.076573 0
1.430686 -0.057836 0
1.441271 -0.040206 0
1.450842 -0.021196 0
1.457022 0.000334 0
1.456749 0.023716 0
1.448673 0.047280 0
1.432786 0.069034 0
1.410109 0.087271 0
1.382142 0.100793 0
1.350567 0.108849 0
1.317154 0.111048 0
1.283703 0.107314 0
1.251942 0.097870 0
1.223389 0.083174 0
1.199220 0.063771 0
1.180246 0.040076 0
1.166978 0.012250 0
1.159838 -0.019179 0
1.160236 -0.051758 0
1.169418 -0.080824 0
1.187746 -0.101043 0
1.215006 -0.107748 0
1.249474 -0.097932 0
1.286701 -0.071767 0
1.319440 -0.034161 0
1.339848 0.006153 0
1.344703 0.042248 0
1.337033 0.071655 0
1.320123 0.093930 0
1.296777 0.109405 0
1.269225 0.118713 0
1.239198 0.122503 0
1.208045 0.121307 0
1.176852 0.115528 0
1.146535 0.105499 0
1.117885 0.091590 0
1.091514 0.074323 0
1.067689 0.054458 0
1.046099 0.032954 0
1.025831 0.010737 0
1.005896 -0.011671 0
0.986365 -0.034051 0
0.969613 -0.056279 0
0.959395 -0.078178 0
0.959043 -0.098654 0
0.970074 -0.115047 0
0.991964 -0.123715 0
1.022766 -0.121272 0
1.059689 -0.105729 0
1.099343 -0.077270 0
1.137705 -0.038793 0
1.169877 0.003329 0
1.191436 0.042086 0
1.202097 0.073864 0
1.203078 0.097466 0
1.195952 0.112405 0
1.182395 0.118809 0
1.164021 0.117350 0
1.142297 0.109177 0
1.118508 0.095837 0
1.093738 0.079135 0
1.068803 0.060951 0
1.044162 0.042991 0
1.019952 0.026471 0
0.996337 0.011786 0
0.974042 -0.001682 0
0.954497 -0.015246 0
0.939724 -0.030030 0
0.931764 -0.046274 0
0.931731 -0.063037 0
0.939534 -0.078356 0
0.954211 -0.089900 0
0.974384 -0.095575 0
0.998578 -0.093904 0
1.025356 -0.084228 0
1.053335 -0.066855 0
1.081084 -0.043190 0
1.106946 -0.015881 0
1.128737 0.011092 0
1.145027 0.034218 0
1.155818 0.051605 0
1.161401 0.062187 0
1.162247 0.065679 0
1.159025 0.062665 0
1.152681 0.054526 0
1.144466 0.042497 0
1.136562 0.035213 0
1.000000 -0.000001 0
1.001068 -0.023624 0
1.004561 -0.049368 0
1.011496 -0.079372 0
1.024035 -0.115689 0
1.046213 -0.159736 0
1.085014 -0.210141 0
1.150043 -0.263986 0
1.263649 -0.279081 0
1.334523 -0.240208 0
1.366156 -0.189370 0
1.379337 -0.145530 0
1.383962 -0.111285 0
1.384916 -0.085679 0
1.386120 -0.066520 0
1.391000 -0.049827 0
1.400896 -0.030251 0
1.412661 -0.004295 0
1.418521 0.026702 0
1.414740 0.058846 0
1.401369 0.088634 0
1.379908 0.113482 0
1.352110 0.131880 0
1.319736 0.142976 0
1.284606 0.146330 0
1.248644 0.141887 0
1.213757 0.130033 0
1.181536 0.111579 0
1.152889 0.087551 0
1.127965 0.058897 0
1.106307 0.026287 0
1.086652 -0.010362 0
1.068011 -0.049758 0
1.054485 -0.087377 0
1.051716 -0.117753 0
1.064299 -0.135531 0
1.093381 -0.135244 0
1.135843 -0.113105 0
1.184546 -0.070194 0
1.229039 -0.015517 0
1.258408 0.036895 0
1.270396 0.079092 0
1.269051 0.110672 0
1.257777 0.132596 0
1.239248 0.146127 0
1.215582 0.152427 0
1.188483 0.152402 0
1.159350 0.146708 0
1.129362 0.135854 0
1.099475 0.120403 0
1.070208 0.101240 0
1.041207 0.079772 0
1.011013 0.057730 0
0.977923 0.036420 0
0.941987 0.015665 0
0.906385 -0.006949 0
0.876726 -0.034189 0
0.858847 -0.066173 0
0.855299 -0.099608 0
0.865171 -0.129005 0
0.886154 -0.148799 0
0.915816 -0.154806 0
0.951860 -0.144786 0
0.991954 -0.118706 0
1.033498 -0.078938 0
1.073289 -0.030466 0
1.106570 0.018507 0
1.129824 0.060918 0
1.143135 0.094083 0
1.147358 0.117181 0
1.143682 0.130236 0
1.133398 0.133957 0
1.117763 0.129609 0
1.097891 0.118913 0
1.074649 0.103943 0
1.048576 0.086935 0
1.020013 0.069888 0
0.989539 0.053951 0
0.958576 0.038922 0
0.929616 0.023380 0
0.905628 0.005437 0
0.889051 -0.016171 0
0.881153 -0.040881 0
0.881836 -0.066262 0
0.889993 -0.089205 0
0.904182 -0.106894 0
0.923046 -0.117212 0
0.945423 -0.118822 0
0.970297 -0.111206 0
0.996721 -0.094744 0
1.023735 -0.070793 0
1.050273 -0.041716 0
1.074949 -0.010944 0
1.095759 0.017333 0
1.111651 0.040024 0
1.122478 0.055755 0
1.128341 0.063986 0
1.129636 0.065009 0
1.127077 0.059896 0
1.121685 0.049382 0
1.115171 0.042780 0
1.000000 -0.000001 0
0.999892 -0.024893 0
0.999742 -0.052528 0
1.000256 -0.086052 0
1.003239 -0.129312 0
1.012898 -0.186988 0
1.038789 -0.262317 0
1.100430 -0.365894 0
1.261817 -0.381736 0
1.307541 -0.284361 0
1.292808 -0.198870 0
1.271705 -0.142566 0
1.251027 -0.104161 0
1.231059 -0.078730 0
1.214233 -0.063921 0
1.205635 -0.054985 0
1.210532 -0.042860 0
1.229794 -0.017295 0
1.252481 0.021632 0
1.262907 0.064428 0
1.261524 0.103862 0
1.250730 0.136525 0
1.232144 0.160961 0
1.206953 0.176349 0
1.176571 0.182135 0
1.142863 0.178160 0
1.107956 0.164980 0
1.073375 0.144045 0
1.038556 0.117346 0
1.000430 0.086665 0
0.956297 0.053570 0
0.907917 0.019122 0
0.861475 -0.019588 0
0.826288 -0.064528 0
0.812354 -0.110859 0
0.821886 -0.149416 0
0.852451 -0.169475 0
0.900090 -0.162932 0
0.959779 -0.127358 0
1.024560 -0.067709 0
1.083888 0.000890 0
1.126210 0.061011 0
1.150891 0.106547 0
1.161499 0.139207 0
1.160749 0.160906 0
1.150898 0.173266 0
1.133883 0.177537 0
1.111352 0.174647 0
1.084565 0.165372 0
1.054121 0.150742 0
1.019599 0.132590 0
0.979692 0.113653 0
0.933662 0.096239 0
0.883690 0.079764 0
0.835872 0.059869 0
0.797999 0.031213 0
0.775155 -0.008737 0
0.767838 -0.056748 0
0.773104 -0.104975 0
0.787530 -0.145900 0
0.808845 -0.174359 0
0.835897 -0.186979 0
0.867958 -0.181869 0
0.904095 -0.158910 0
0.942876 -0.120128 0
0.982334 -0.069743 0
1.019707 -0.014450 0
1.050414 0.037300 0
1.072367 0.079931 0
1.085479 0.111856 0
1.090229 0.132769 0
1.087360 0.143268 0
1.077667 0.144683 0
1.061824 0.138950 0
1.040301 0.128449 0
1.013486 0.115586 0
0.982161 0.102028 0
0.948134 0.087907 0
0.914516 0.071709 0
0.885140 0.051264 0
0.863337 0.025316 0
0.850712 -0.005557 0
0.846833 -0.039062 0
0.850172 -0.071879 0
0.859064 -0.100704 0
0.872193 -0.122955 0
0.888665 -0.136818 0
0.907866 -0.141156 0
0.929287 -0.135526 0
0.952386 -0.120293 0
0.976518 -0.096742 0
1.000901 -0.067094 0
1.024583 -0.034392 0
1.046223 -0.002483 0
1.064082 0.024888 0
1.077474 0.045500 0
1.086181 0.058523 0
1.090302 0.063931 0
1.090276 0.062480 0
1.086872 0.054406 0
1.081618 0.049106 0
1.000000 -0.000002 0
0.998475 -0.023376 0
0.993823 -0.049734 0
0.985875 -0.082867 0
0.974736 -0.128327 0
0.961836 -0.195280 0
0.953373 -0.297670 0
0.971185 -0.487015 0
1.127422 -0.486195 0
1.112207 -0.271202 0
1.006337 -0.153531 0
0.946318 -0.103744 0
0.903609 -0.070638 0
0.864833 -0.048886 0
0.826777 -0.041097 0
0.798688 -0.046130 0
0.794872 -0.054415 0
0.823365 -0.046248 0
0.876770 -0.006415 0
0.929087 0.049799 0
0.962191 0.100807 0
0.981352 0.142857 0
0.988281 0.175653 0
0.982917 0.198546 0
0.965602 0.210417 0
0.936913 0.210501 0
0.897115 0.199524 0
0.846066 0.180983 0
0.784510 0.160501 0
0.716293 0.141163 0
0.649424 0.118806 0
0.594965 0.084464 0
0.563165 0.031873 0
0.555830 -0.038258 0
0.568009 -0.113353 0
0.594623 -0.175628 0
0.632933 -0.213446 0
0.682221 -0.220434 0
0.741986 -0.194666 0
0.810294 -0.139627 0
0.882591 -0.064757 0
0.948398 0.012088 0
0.997426 0.075381 0
1.030034 0.122736 0
1.048485 0.156726 0
1.054573 0.179290 0
1.049915 0.191945 0
1.035825 0.196025 0
1.012999 0.193083 0
0.981248 0.185367 0
0.939851 0.175669 0
0.889273 0.165709 0
0.833628 0.153733 0
0.781264 0.134213 0
0.741495 0.101359 0
0.719706 0.053771 0
0.715263 -0.004024 0
0.722480 -0.064119 0
0.735479 -0.119298 0
0.751258 -0.164744 0
0.769153 -0.197166 0
0.789787 -0.213921 0
0.814119 -0.212984 0
0.842625 -0.193624 0
0.874855 -0.157178 0
0.909475 -0.107298 0
0.944541 -0.049573 0
0.977026 0.008258 0
1.003105 0.059018 0
1.021582 0.099318 0
1.032116 0.128355 0
1.034770 0.146519 0
1.029751 0.155144 0
1.017275 0.156278 0
0.997652 0.152281 0
0.971678 0.145076 0
0.941185 0.135241 0
0.909305 0.121596 0
0.879946 0.101915 0
0.856605 0.074557 0
0.841254 0.039863 0
0.834062 0.000332 0
0.833794 -0.040342 0
0.838585 -0.078494 0
0.846881 -0.111226 0
0.857703 -0.136495 0
0.870584 -0.152884 0
0.885384 -0.159443 0
0.902071 -0.155725 0
0.920511 -0.141973 0
0.940354 -0.119304 0
0.961016 -0.089778 0
0.981710 -0.056262 0
1.001466 -0.022162 0
1.018876 0.008778 0
1.032681 0.033661 0
1.042373 0.051162 0
1.047790 0.060920 0
1.049141 0.063332 0
1.047044 0.058044 0
1.042946 0.054268 0
1.000000 -0.000003 0
0.997114 -0.018724 0
0.988055 -0.039928 0
0.971450 -0.066963 0
0.944614 -0.105268 0
0.902718 -0.165620 0
0.836904 -0.271664 0
0.731529 -0.539943 0
0.545920 -0.522761 0
0.000285 -0.163276 0
0.394789 -0.032977 0
0.322945 -0.039837 0
0.303676 -0.022678 0
0.294579 -0.001899 0
0.279573 0.002221 0
0.268199 -0.023083 0
0.277640 -0.067541 0
0.319393 -0.099198 0
0.394016 -0.084094 0
0.487518 -0.020998 0
0.570039 0.051592 0
0.627754 0.110431 0
0.665098 0.159392 0
0.681884 0.199026 0
0.677624 0.228138 0
0.652056 0.246649 0
0.605766 0.255829 0
0.542306 0.256655 0
0.471097 0.247125 0
0.407523 0.221757 0
0.367149 0.174903 0
0.357716 0.105384 0
0.376266 0.019547 0
0.409998 -0.069375 0
0.445037 -0.149654 0
0.477587 -0.214339 0
0.510168 -0.257072 0
0.547497 -0.271985 0
0.593787 -0.255432 0
0.650703 -0.208316 0
0.716486 -0.137216 0
0.786150 -0.053826 0
0.848529 0.024910 0
0.895654 0.088145 0
0.927937 0.136364 0
0.946258 0.171833 0
0.951418 0.196283 0
0.943954 0.211561 0
0.924018 0.219947 0
0.891805 0.223890 0
0.848976 0.224565 0
0.800505 0.219877 0
0.754851 0.204249 0
0.720908 0.171900 0
0.703592 0.121431 0
0.702007 0.057449 0
0.711323 -0.011507 0
0.725389 -0.076961 0
0.739896 -0.133751 0
0.752955 -0.179573 0
0.764589 -0.212889 0
0.776210 -0.231946 0
0.789951 -0.234706 0
0.807721 -0.219646 0
0.830328 -0.186978 0
0.857151 -0.139429 0
0.886494 -0.082001 0
0.916082 -0.021264 0
0.942355 0.035374 0
0.962793 0.082845 0
0.976283 0.119580 0
0.982253 0.145632 0
0.980423 0.162177 0
0.970795 0.171048 0
0.953915 0.174045 0
0.931302 0.172053 0
0.905700 0.164402 0
0.880715 0.149146 0
0.859806 0.124408 0
0.845174 0.089956 0
0.837324 0.047858 0
0.835452 0.001902 0
0.838106 -0.043584 0
0.843663 -0.084965 0
0.850862 -0.119820 0
0.858968 -0.146655 0
0.867765 -0.164496 0
0.877458 -0.172640 0
0.888456 -0.170648 0
0.901110 -0.158572 0
0.915472 -0.137242 0
0.931221 -0.108444 0
0.947701 -0.074837 0
0.964033 -0.039643 0
0.979175 -0.006320 0
0.991775 0.022010 0
1.001031 0.043422 0
1.006590 0.057171 0
1.008509 0.063233 0
1.007324 0.060607 0
1.004358 0.058274 0
1.000000 -0.000004 0
0.996200 -0.011437 0
0.984181 -0.024069 0
0.961742 -0.039422 0
0.924271 -0.059590 0
0.862548 -0.087566 0
0.756971 -0.126479 0
0.564399 -0.196031 0
0.074183 0.000252 0
-0.528982 0.121915 0
0.000000 -0.000036 0
-0.033066 -0.023258 0
-0.050886 -0.042275 0
-0.066928 -0.024785 0
-0.086892 -0.014720 0
-0.097002 -0.044201 0
-0.083524 -0.105613 0
-0.045827 -0.162628 0
0.016387 -0.174545 0
0.108355 -0.126228 0
0.213803 -0.039432 0
0.296179 0.047794 0
0.352654 0.121519 0
0.384855 0.186018 0
0.392897 0.240245 0
0.378535 0.282361 0
0.347224 0.309277 0
0.309711 0.315658 0
0.280518 0.295291 0
0.272397 0.245116 0
0.290321 0.168617 0
0.329709 0.075349 0
0.377310 -0.020410 0
0.419090 -0.107031 0
0.450644 -0.180942 0
0.472042 -0.240758 0
0.486799 -0.283357 0
0.501203 -0.304054 0
0.522570 -0.297873 0
0.556426 -0.262329 0
0.603994 -0.200205 0
0.661818 -0.119958 0
0.722858 -0.034126 0
0.775627 0.043326 0
0.814712 0.106120 0
0.839731 0.155806 0
0.850663 0.194247 0
0.847603 0.223422 0
0.831139 0.245231 0
0.803356 0.260408 0
0.769078 0.266969 0
0.735952 0.259836 0
0.712127 0.233333 0
0.702564 0.185475 0
0.707089 0.120263 0
0.721682 0.046045 0
0.740860 -0.027403 0
0.759374 -0.092690 0
0.774393 -0.146863 0
0.784633 -0.189437 0
0.790179 -0.220421 0
0.792542 -0.239283 0
0.794470 -0.244495 0
0.799198 -0.234001 0