# vtk DataFile Version 2.0
generated by CFD-lab course output (written by Tobias Neckel) 
ASCII

DATASET STRUCTURED_GRID
DIMENSIONS  101 21 1 
POINTS 2121 float

0.000000 0.000000 0
0.100000 0.000000 0
0.200000 0.000000 0
0.300000 0.000000 0
0.400000 0.000000 0
0.500000 0.000000 0
0.600000 0.000000 0
0.700000 0.000000 0
0.800000 0.000000 0
0.900000 0.000000 0
1.000000 0.000000 0
1.100000 0.000000 0
1.200000 0.000000 0
1.300000 0.000000 0
1.400000 0.000000 0
1.500000 0.000000 0
1.600000 0.000000 0
1.700000 0.000000 0
1.800000 0.000000 0
1.900000 0.000000 0
2.000000 0.000000 0
2.100000 0.000000 0
2.200000 0.000000 0
2.300000 0.000000 0
2.400000 0.000000 0
2.500000 0.000000 0
2.600000 0.000000 0
2.700000 0.000000 0
2.800000 0.000000 0
2.900000 0.000000 0
3.000000 0.000000 0
3.100000 0.000000 0
3.200000 0.000000 0
3.300000 0.000000 0
3.400000 0.000000 0
3.500000 0.000000 0
3.600000 0.000000 0
3.700000 0.000000 0
3.800000 0.000000 0
3.900000 0.000000 0
4.000000 0.000000 0
4.100000 0.000000 0
4.200000 0.000000 0
4.300000 0.000000 0
4.400000 0.000000 0
4.500000 0.000000 0
4.600000 0.000000 0
4.700000 0.000000 0
4.800000 0.000000 0
4.900000 0.000000 0
5.000000 0.000000 0
5.100000 0.000000 0
5.200000 0.000000 0
5.300000 0.000000 0
5.400000 0.000000 0
5.500000 0.000000 0
5.600000 0.000000 0
5.700000 0.000000 0
5.800000 0.000000 0
5.900000 0.000000 0
6.000000 0.000000 0
6.100000 0.000000 0
6.200000 0.000000 0
6.300000 0.000000 0
6.400000 0.000000 0
6.500000 0.000000 0
6.600000 0.000000 0
6.700000 0.000000 0
6.800000 0.000000 0
6.900000 0.000000 0
7.000000 0.000000 0
7.100000 0.000000 0
7.200000 0.000000 0
7.300000 0.000000 0
7.400000 0.000000 0
7.500000 0.000000 0
7.600000 0.000000 0
7.700000 0.000000 0
7.800000 0.000000 0
7.900000 0.000000 0
8.000000 0.000000 0
8.100000 0.000000 0
8.200000 0.000000 0
8.300000 0.000000 0
8.400000 0.000000 0
8.500000 0.000000 0
8.600000 0.000000 0
8.700000 0.000000 0
8.800000 0.000000 0
8.900000 0.000000 0
9.000000 0.000000 0
9.100000 0.000000 0
9.200000 0.000000 0
9.300000 0.000000 0
9.400000 0.000000 0
9.500000 0.000000 0
9.600000 0.000000 0
9.700000 0.000000 0
9.800000 0.000000 0
9.900000 0.000000 0
10.000000 0.000000 0
0.000000 0.100000 0
0.100000 0.100000 0
0.200000 0.100000 0
0.300000 0.100000 0
0.400000 0.100000 0
0.500000 0.100000 0
0.600000 0.100000 0
0.700000 0.100000 0
0.800000 0.100000 0
0.900000 0.100000 0
1.000000 0.100000 0
1.100000 0.100000 0
1.200000 0.100000 0
1.300000 0.100000 0
1.400000 0.100000 0
1.500000 0.100000 0
1.600000 0.100000 0
1.700000 0.100000 0
1.800000 0.100000 0
1.900000 0.100000 0
2.000000 0.100000 0
2.100000 0.100000 0
2.200000 0.100000 0
2.300000 0.100000 0
2.400000 0.100000 0
2.500000 0.100000 0
2.600000 0.100000 0
2.700000 0.100000 0
2.800000 0.100000 0
2.900000 0.100000 0
3.000000 0.100000 0
3.100000 0.100000 0
3.200000 0.100000 0
3.300000 0.100000 0
3.400000 0.100000 0
3.500000 0.100000 0
3.600000 0.100000 0
3.700000 0.100000 0
3.800000 0.100000 0
3.900000 0.100000 0
4.000000 0.100000 0
4.100000 0.100000 0
4.200000 0.100000 0
4.300000 0.100000 0
4.400000 0.100000 0
4.500000 0.100000 0
4.600000 0.100000 0
4.700000 0.100000 0
4.800000 0.100000 0
4.900000 0.100000 0
5.000000 0.100000 0
5.100000 0.100000 0
5.200000 0.100000 0
5.300000 0.100000 0
5.400000 0.100000 0
5.500000 0.100000 0
5.600000 0.100000 0
5.700000 0.100000 0
5.800000 0.100000 0
5.900000 0.100000 0
6.000000 0.100000 0
6.100000 0.100000 0
6.200000 0.100000 0
6.300000 0.100000 0
6.400000 0.100000 0
6.500000 0.100000 0
6.600000 0.100000 0
6.700000 0.100000 0
6.800000 0.100000 0
6.900000 0.100000 0
7.000000 0.100000 0
7.100000 0.100000 0
7.200000 0.100000 0
7.300000 0.100000 0
7.400000 0.100000 0
7.500000 0.100000 0
7.600000 0.100000 0
7.700000 0.100000 0
7.800000 0.100000 0
7.900000 0.100000 0
8.000000 0.100000 0
8.100000 0.100000 0
8.200000 0.100000 0
8.300000 0.100000 0
8.400000 0.100000 0
8.500000 0.100000 0
8.600000 0.100000 0
8.700000 0.100000 0
8.800000 0.100000 0
8.900000 0.100000 0
9.000000 0.100000 0
9.100000 0.100000 0
9.200000 0.100000 0
9.300000 0.100000 0
9.400000 0.100000 0
9.500000 0.100000 0
9.600000 0.100000 0
9.700000 0.100000 0
9.800000 0.100000 0
9.900000 0.100000 0
10.000000 0.100000 0
0.000000 0.200000 0
0.100000 0.200000 0
0.200000 0.200000 0
0.300000 0.200000 0
0.400000 0.200000 0
0.500000 0.200000 0
0.600000 0.200000 0
0.700000 0.200000 0
0.800000 0.200000 0
0.900000 0.200000 0
1.000000 0.200000 0
1.100000 0.200000 0
1.200000 0.200000 0
1.300000 0.200000 0
1.400000 0.200000 0
1.500000 0.200000 0
1.600000 0.200000 0
1.700000 0.200000 0
1.800000 0.200000 0
1.900000 0.200000 0
2.000000 0.200000 0
2.100000 0.200000 0
2.200000 0.200000 0
2.300000 0.200000 0
2.400000 0.200000 0
2.500000 0.200000 0
2.600000 0.200000 0
2.700000 0.200000 0
2.800000 0.200000 0
2.900000 0.200000 0
3.000000 0.200000 0
3.100000 0.200000 0
3.200000 0.200000 0
3.300000 0.200000 0
3.400000 0.200000 0
3.500000 0.200000 0
3.600000 0.200000 0
3.700000 0.200000 0
3.800000 0.200000 0
3.900000 0.200000 0
4.000000 0.200000 0
4.100000 0.200000 0
4.200000 0.200000 0
4.300000 0.200000 0
4.400000 0.200000 0
4.500000 0.200000 0
4.600000 0.200000 0
4.700000 0.200000 0
4.800000 0.200000 0
4.900000 0.200000 0
5.000000 0.200000 0
5.100000 0.200000 0
5.200000 0.200000 0
5.300000 0.200000 0
5.400000 0.200000 0
5.500000 0.200000 0
5.600000 0.200000 0
5.700000 0.200000 0
5.800000 0.200000 0
5.900000 0.200000 0
6.000000 0.200000 0
6.100000 0.200000 0
6.200000 0.200000 0
6.300000 0.200000 0
6.400000 0.200000 0
6.500000 0.200000 0
6.600000 0.200000 0
6.700000 0.200000 0
6.800000 0.200000 0
6.900000 0.200000 0
7.000000 0.200000 0
7.100000 0.200000 0
7.200000 0.200000 0
7.300000 0.200000 0
7.400000 0.200000 0
7.500000 0.200000 0
7.600000 0.200000 0
7.700000 0.200000 0
7.800000 0.200000 0
7.900000 0.200000 0
8.000000 0.200000 0
8.100000 0.200000 0
8.200000 0.200000 0
8.300000 0.200000 0
8.400000 0.200000 0
8.500000 0.200000 0
8.600000 0.200000 0
8.700000 0.200000 0
8.800000 0.200000 0
8.900000 0.200000 0
9.000000 0.200000 0
9.100000 0.200000 0
9.200000 0.200000 0
9.300000 0.200000 0
9.400000 0.200000 0
9.500000 0.200000 0
9.600000 0.200000 0
9.700000 0.200000 0
9.800000 0.200000 0
9.900000 0.200000 0
10.000000 0.200000 0
0.000000 0.300000 0
0.100000 0.300000 0
0.200000 0.300000 0
0.300000 0.300000 0
0.400000 0.300000 0
0.500000 0.300000 0
0.600000 0.300000 0
0.700000 0.300000 0
0.800000 0.300000 0
0.900000 0.300000 0
1.000000 0.300000 0
1.100000 0.300000 0
1.200000 0.300000 0
1.300000 0.300000 0
1.400000 0.300000 0
1.500000 0.300000 0
1.600000 0.300000 0
1.700000 0.300000 0
1.800000 0.300000 0
1.900000 0.300000 0
2.000000 0.300000 0
2.100000 0.300000 0
2.200000 0.300000 0
2.300000 0.300000 0
2.400000 0.300000 0
2.500000 0.300000 0
2.600000 0.300000 0
2.700000 0.300000 0
2.800000 0.300000 0
2.900000 0.300000 0
3.000000 0.300000 0
3.100000 0.300000 0
3.200000 0.300000 0
3.300000 0.300000 0
3.400000 0.300000 0
3.500000 0.300000 0
3.600000 0.300000 0
3.700000 0.300000 0
3.800000 0.300000 0
3.900000 0.300000 0
4.000000 0.300000 0
4.100000 0.300000 0
4.200000 0.300000 0
4.300000 0.300000 0
4.400000 0.300000 0
4.500000 0.300000 0
4.600000 0.300000 0
4.700000 0.300000 0
4.800000 0.300000 0
4.900000 0.300000 0
5.000000 0.300000 0
5.100000 0.300000 0
5.200000 0.300000 0
5.300000 0.300000 0
5.400000 0.300000 0
5.500000 0.300000 0
5.600000 0.300000 0
5.700000 0.300000 0
5.800000 0.300000 0
5.900000 0.300000 0
6.000000 0.300000 0
6.100000 0.300000 0
6.200000 0.300000 0
6.300000 0.300000 0
6.400000 0.300000 0
6.500000 0.300000 0
6.600000 0.300000 0
6.700000 0.300000 0
6.800000 0.300000 0
6.900000 0.300000 0
7.000000 0.300000 0
7.100000 0.300000 0
7.200000 0.300000 0
7.300000 0.300000 0
7.400000 0.300000 0
7.500000 0.300000 0
7.600000 0.300000 0
7.700000 0.300000 0
7.800000 0.300000 0
7.900000 0.300000 0
8.000000 0.300000 0
8.100000 0.300000 0
8.200000 0.300000 0
8.300000 0.300000 0
8.400000 0.300000 0
8.500000 0.300000 0
8.600000 0.300000 0
8.700000 0.300000 0
8.800000 0.300000 0
8.900000 0.300000 0
9.000000 0.300000 0
9.100000 0.300000 0
9.200000 0.300000 0
9.300000 0.300000 0
9.400000 0.300000 0
9.500000 0.300000 0
9.600000 0.300000 0
9.700000 0.300000 0
9.800000 0.300000 0
9.900000 0.300000 0
10.000000 0.300000 0
0.000000 0.400000 0
0.100000 0.400000 0
0.200000 0.400000 0
0.300000 0.400000 0
0.400000 0.400000 0
0.500000 0.400000 0
0.600000 0.400000 0
0.700000 0.400000 0
0.800000 0.400000 0
0.900000 0.400000 0
1.000000 0.400000 0
1.100000 0.400000 0
1.200000 0.400000 0
1.300000 0.400000 0
1.400000 0.400000 0
1.500000 0.400000 0
1.600000 0.400000 0
1.700000 0.400000 0
1.800000 0.400000 0
1.900000 0.400000 0
2.000000 0.400000 0
2.100000 0.400000 0
2.200000 0.400000 0
2.300000 0.400000 0
2.400000 0.400000 0
2.500000 0.400000 0
2.600000 0.400000 0
2.700000 0.400000 0
2.800000 0.400000 0
2.900000 0.400000 0
3.000000 0.400000 0
3.100000 0.400000 0
3.200000 0.400000 0
3.300000 0.400000 0
3.400000 0.400000 0
3.500000 0.400000 0
3.600000 0.400000 0
3.700000 0.400000 0
3.800000 0.400000 0
3.900000 0.400000 0
4.000000 0.400000 0
4.100000 0.400000 0
4.200000 0.400000 0
4.300000 0.400000 0
4.400000 0.400000 0
4.500000 0.400000 0
4.600000 0.400000 0
4.700000 0.400000 0
4.800000 0.400000 0
4.900000 0.400000 0
5.000000 0.400000 0
5.100000 0.400000 0
5.200000 0.400000 0
5.300000 0.400000 0
5.400000 0.400000 0
5.500000 0.400000 0
5.600000 0.400000 0
5.700000 0.400000 0
5.800000 0.400000 0
5.900000 0.400000 0
6.000000 0.400000 0
6.100000 0.400000 0
6.200000 0.400000 0
6.300000 0.400000 0
6.400000 0.400000 0
6.500000 0.400000 0
6.600000 0.400000 0
6.700000 0.400000 0
6.800000 0.400000 0
6.900000 0.400000 0
7.000000 0.400000 0
7.100000 0.400000 0
7.200000 0.400000 0
7.300000 0.400000 0
7.400000 0.400000 0
7.500000 0.400000 0
7.600000 0.400000 0
7.700000 0.400000 0
7.800000 0.400000 0
7.900000 0.400000 0
8.000000 0.400000 0
8.100000 0.400000 0
8.200000 0.400000 0
8.300000 0.400000 0
8.400000 0.400000 0
8.500000 0.400000 0
8.600000 0.400000 0
[...]
POINT_DATA 2121 

VECTORS velocity float
0.500000 0.000000 0
0.000003 0.000000 0
0.000010 0.000000 0
0.000019 0.000000 0
0.000028 0.000000 0
0.000034 0.000000 0
0.000031 0.000000 0
0.000017 0.000000 0
-0.000014 0.000000 0
-0.000068 0.000000 0
-0.000147 0.000000 0
-0.000252 0.000000 0
-0.000380 0.000000 0
-0.000523 0.000000 0
-0.000661 0.000000 0
-0.000767 0.000000 0
-0.000800 0.000000 0
-0.000724 0.000000 0
-0.000516 0.000000 0
-0.000176 0.000000 0
0.000264 0.000000 0
0.000757 0.000000 0
0.001248 0.000000 0
0.001687 0.000000 0
0.002032 0.000000 0
0.002253 0.000000 0
0.002328 0.000000 0
0.002242 0.000000 0
0.001988 0.000000 0
0.001564 0.000000 0
0.000974 0.000000 0
0.000222 0.000000 0
-0.000685 0.000000 0
-0.001734 0.000000 0
-0.002823 0.000000 0
-0.003822 0.000000 0
-0.004566 0.000000 0
-0.004887 0.000000 0
-0.004661 0.000000 0
-0.003874 0.000000 0
-0.002644 0.000000 0
-0.001205 0.000000 0
0.000223 0.000000 0
0.001540 0.000000 0
0.002663 0.000000 0
0.003546 0.000000 0
0.004173 0.000000 0
0.004546 0.000000 0
0.004681 0.000000 0
0.004593 0.000000 0
0.004294 0.000000 0
0.003791 0.000000 0
0.003082 0.000000 0
0.002160 0.000000 0
0.001023 0.000000 0
-0.000286 0.000000 0
-0.001601 0.000000 0
-0.002841 0.000000 0
-0.003966 0.000000 0
-0.004939 0.000000 0
-0.005706 0.000000 0
-0.006189 0.000000 0
-0.006290 0.000000 0
-0.005898 0.000000 0
-0.004942 0.000000 0
-0.003462 0.000000 0
-0.001660 0.000000 0
0.000184 0.000000 0
0.001942 0.000000 0
0.003522 0.000000 0
0.004825 0.000000 0
0.005772 0.000000 0
0.006306 0.000000 0
0.006395 0.000000 0
0.006031 0.000000 0
0.005238 0.000000 0
0.004075 0.000000 0
0.002647 0.000000 0
0.001099 0.000000 0
-0.000358 0.000000 0
-0.001508 0.000000 0
-0.002376 0.000000 0
-0.003036 0.000000 0
-0.003560 0.000000 0
-0.003997 0.000000 0
-0.004373 0.000000 0
-0.004678 0.000000 0
-0.004867 0.000000 0
-0.004860 0.000000 0
-0.004564 0.000000 0
-0.003900 0.000000 0
-0.002855 0.000000 0
-0.001511 0.000000 0
-0.000031 0.000000 0
0.001478 0.000000 0
0.002955 0.000000 0
0.004310 0.000000 0
0.005435 0.000000 0
0.006223 0.000000 0
0.006596 0.000000 0
0.006782 0.000000 0
1.000000 -0.000002 0
1.002579 -0.004615 0
1.010516 -0.010009 0
1.024193 -0.015871 0
1.044026 -0.022005 0
1.070282 -0.028050 0
1.102778 -0.033365 0
1.140472 -0.037066 0
1.181180 -0.038262 0
1.221495 -0.036647 0
1.258338 -0.032799 0
1.289913 -0.027731 0
1.315675 -0.022393 0
1.335949 -0.017438 0
1.351527 -0.013178 0
1.363324 -0.009618 0
1.372079 -0.006510 0
1.378110 -0.003471 0
1.381218 -0.000143 0
1.380817 0.003688 0
1.376227 0.008005 0
1.366953 0.012579 0
1.352872 0.017067 0
1.334277 0.021110 0
1.311821 0.024401 0
1.286435 0.026705 0
1.259238 0.027865 0
1.231467 0.027786 0
1.204419 0.026426 0
1.179399 0.023784 0
1.157687 0.019886 0
1.140512 0.014763 0
1.129035 0.008427 0
1.124316 0.001004 0
1.127205 -0.006979 0
1.138094 -0.014634 0
1.156512 -0.020893 0
1.180779 -0.024636 0
1.207979 -0.024993 0
1.234352 -0.021707 0
1.256056 -0.015337 0
1.270089 -0.007144 0
1.274951 0.001543 0
1.270617 0.009837 0
1.257932 0.017181 0
1.238227 0.023198 0
1.213082 0.027705 0
1.184140 0.030657 0
1.153009 0.032091 0
1.121209 0.032071 0
1.090176 0.030653 0
1.061271 0.027862 0
1.035787 0.023679 0
1.014930 0.018064 0
0.999741 0.011032 0
0.990996 0.002903 0
0.989162 -0.005506 0
0.994396 -0.013442 0
1.006539 -0.020554 0
1.025140 -0.026587 0
1.049447 -0.031254 0
1.078403 -0.034181 0
1.110585 -0.034882 0
1.144058 -0.032827 0
1.176275 -0.027667 0
1.204179 -0.019586 0
1.224617 -0.009561 0
1.235042 0.001044 0
1.234404 0.011271 0
1.223302 0.020558 0
1.203038 0.028382 0
1.175413 0.034277 0
1.142608 0.037884 0
1.107049 0.038957 0
1.071271 0.037385 0
1.037743 0.033214 0
1.008655 0.026715 0
0.985655 0.018429 0
0.969632 0.009216 0
0.960660 0.000339 0
0.958242 -0.007037 0
0.961484 -0.012630 0
0.969360 -0.016801 0
0.981020 -0.019970 0
0.995866 -0.022474 0
1.013540 -0.024510 0
1.033825 -0.026088 0
1.056472 -0.027019 0
1.080988 -0.026934 0
1.106461 -0.025379 0
1.131497 -0.021984 0
1.154280 -0.016684 0
1.172789 -0.009892 0
1.185150 -0.002401 0
1.190130 0.005064 0
1.187649 0.011976 0
1.178667 0.017726 0
1.164771 0.021494 0
1.148233 0.022277 0
1.131972 0.017474 0
1.121184 0.013347 0
1.000000 -0.000006 0
1.002897 -0.010506 0
1.011291 -0.021609 0
1.025514 -0.033503 0
1.046201 -0.046082 0
1.074045 -0.058743 0
1.109401 -0.070178 0
1.151604 -0.078390 0
1.198388 -0.081011 0
1.244203 -0.077147 0
1.284655 -0.068407 0
1.317956 -0.057324 0
1.344124 -0.046022 0
1.364089 -0.035838 0
1.379174 -0.027362 0
1.390749 -0.020540 0
1.399907 -0.014774 0
1.407118 -0.009129 0
1.412011 -0.002699 0
1.413576 0.004999 0
1.410742 0.013871 0
1.402766 0.023360 0
1.389460 0.032680 0
1.371178 0.041054 0
1.348691 0.047843 0
1.323037 0.052584 0
1.295424 0.054968 0
1.267146 0.054820 0
1.239536 0.052071 0
1.213910 0.046735 0
1.191528 0.038892 0
1.173568 0.028657 0
1.161126 0.016203 0
1.155239 0.001839 0
1.156953 -0.013769 0
1.167124 -0.029299 0
1.185773 -0.042677 0
1.211625 -0.051460 0
1.242024 -0.053566 0
1.273136 -0.048069 0
1.300473 -0.035731 0
1.319879 -0.018889 0
1.328825 -0.000523 0
1.327239 0.017024 0
1.316421 0.032394 0
1.298086 0.044854 0
1.274076 0.054090 0
1.246186 0.060075 0
1.216068 0.062932 0
1.185211 0.062833 0
1.154955 0.059939 0
1.126500 0.054389 0
1.100889 0.046341 0
1.078965 0.036046 0
1.061296 0.023934 0
1.048180 0.010580 0
1.039854 -0.003397 0
1.036761 -0.017374 0
1.039201 -0.030741 0
1.047260 -0.042904 0
1.060877 -0.053258 0
1.079952 -0.061134 0
1.104247 -0.065652 0
1.133065 -0.065687 0
1.164900 -0.060118 0
1.197262 -0.048339 0
1.226718 -0.030860 0
1.249284 -0.009785 0
1.261612 0.011742 0
1.262806 0.031367 0
1.254000 0.047889 0
1.236887 0.060430 0
1.213514 0.068364 0
1.186100 0.071336 0
1.156860 0.069304 0
1.127817 0.062613 0
1.100619 0.052082 0
1.076394 0.039015 0
1.055730 0.024986 0
1.038830 0.011378 0
1.025911 -0.000838 0
1.017161 -0.011134 0
1.012408 -0.019554 0
1.011340 -0.026526 0
1.013793 -0.032543 0
1.019854 -0.037983 0
1.029810 -0.042959 0
1.043939 -0.047191 0
1.062239 -0.050018 0
1.084235 -0.050540 0
1.108928 -0.047850 0
1.134822 -0.041325 0
1.159985 -0.030904 0
1.182183 -0.017375 0
1.199261 -0.002533 0
1.209887 0.011428 0
1.214176 0.022843 0
1.213400 0.030399 0
1.209187 0.032764 0
1.203250 0.027013 0
1.197323 0.022035 0
1.000000 -0.000009 0
1.002494 -0.015901 0
1.010060 -0.032624 0
1.023309 -0.050777 0
1.043367 -0.070531 0
1.071766 -0.091244 0
1.110064 -0.110919 0
1.158716 -0.126048 0
1.216399 -0.130857 0
1.270865 -0.122911 0
1.315193 -0.106547 0
1.348624 -0.087194 0
1.372733 -0.068521 0
1.389604 -0.052483 0
1.401413 -0.039834 0
1.410291 -0.030347 0
1.418026 -0.022875 0
1.425510 -0.015572 0
1.432139 -0.006599 0
1.435933 0.004957 0
1.434865 0.018815 0
1.427698 0.033862 0
1.414172 0.048655 0
1.394819 0.061879 0
1.370649 0.072541 0
1.342902 0.079972 0
1.312929 0.083757 0
1.282126 0.083675 0
1.251890 0.079665 0
1.223572 0.071796 0
1.198424 0.060232 0
1.177568 0.045169 0
1.162026 0.026760 0
1.152816 0.005181 0
1.151100 -0.018861 0
1.158019 -0.043451 0
1.173925 -0.065392 0
1.198089 -0.080883 0
1.228836 -0.086501 0
1.263368 -0.080154 0
1.297397 -0.062077 0
1.325424 -0.035494 0
1.342346 -0.005816 0
1.346124 0.022242 0
1.338545 0.046335 0
1.322072 0.065544 0
1.299116 0.079605 0
1.271823 0.088666 0
1.242002 0.093066 0
1.211143 0.093183 0
1.180469 0.089364 0
1.150985 0.081928 0
1.123513 0.071215 0
1.098702 0.057658 0
1.077036 0.041817 0
1.058812 0.024347 0
1.044092 0.005915 0
1.032742 -0.012787 0
1.024724 -0.031050 0
1.020434 -0.048260 0
1.020721 -0.063944 0
1.026882 -0.077550 0
1.040181 -0.087994 0
1.061084 -0.093479 0
1.088832 -0.091863 0
1.121452 -0.081404 0
1.155944 -0.061582 0
1.188502 -0.033849 0
1.214749 -0.002251 0
1.230882 0.028170 0
1.236422 0.054301 0
1.232585 0.074763 0
1.221009 0.088670 0
1.203519 0.095611 0
1.181930 0.095665 0
1.157896 0.089453 0
1.132824 0.078135 0
1.107876 0.063313 0
1.084024 0.046775 0
1.062049 0.030152 0
1.042385 0.014626 0
1.025197 0.000866 0
1.010526 -0.010988 0
0.998500 -0.021364 0
0.989688 -0.030997 0
0.985054 -0.040534 0
0.985643 -0.050182 0
0.992187 -0.059458 0
1.004786 -0.067239 0
1.022876 -0.072078 0
1.045387 -0.072580 0
1.070943 -0.067750 0
1.098003 -0.057262 0
1.124928 -0.041686 0
1.149958 -0.022649 0
1.171188 -0.002947 0
1.187159 0.014205 0
1.197755 0.026475 0
1.203768 0.032420 0
1.205960 0.029330 0
1.204489 0.025969 0
1.000000 -0.000012 0
1.001961 -0.020561 0
1.008053 -0.042420 0
1.019168 -0.066807 0
1.037036 -0.094535 0
1.064417 -0.125435 0
1.105075 -0.157123 0
1.162347 -0.184722 0
1.240386 -0.193157 0
1.306125 -0.175937 0
1.351071 -0.146161 0
1.379765 -0.114859 0
1.397150 -0.086998 0
1.406731 -0.064514 0
1.411433 -0.048045 0
1.414219 -0.037150 0
1.417981 -0.029991 0
1.424765 -0.023240 0
1.434155 -0.013120 0
1.442537 0.002275 0
1.445283 0.022108 0
1.440257 0.044053 0
1.427207 0.065559 0
1.407076 0.084577 0
1.381271 0.099760 0
1.351289 0.110304 0
1.318634 0.115746 0
1.284816 0.115861 0
1.251339 0.110627 0
1.219638 0.100206 0
1.190993 0.084901 0
1.166452 0.065059 0
1.146790 0.040958 0
1.132400 0.012768 0
1.123289 -0.018969 0
1.120168 -0.052121 0
1.124179 -0.082744 0
1.136301 -0.106368 0
1.157674 -0.118842 0
1.188460 -0.116628 0
1.226355 -0.097786 0
1.265890 -0.063837 0
1.299104 -0.021221 0
1.318380 0.020826 0
1.322310 0.056446 0
1.314144 0.084283 0
1.297032 0.104340 0
1.273680 0.117190 0
1.246307 0.123612 0
1.216679 0.124366 0
1.186185 0.120097 0
1.155924 0.111346 0
1.126771 0.098624 0
1.099396 0.082524 0
1.074185 0.063826 0
1.051065 0.043526 0
1.029400 0.022675 0
1.008241 0.001997 0
0.987168 -0.018431 0
0.967419 -0.038899 0
0.952338 -0.059704 0
0.945569 -0.080593 0
0.949407 -0.099852 0
0.964107 -0.114337 0
0.988337 -0.120485 0
1.019885 -0.115450 0
1.056073 -0.097910 0
1.093867 -0.068589 0
1.129737 -0.030638 0
1.159262 0.009694 0
1.178883 0.046186 0
1.188611 0.075842 0
1.189452 0.097430 0
1.182755 0.110414 0
1.169967 0.114925 0
1.152504 0.111716 0
1.131680 0.102099 0
1.108693 0.087811 0
1.084589 0.070808 0
1.060162 0.053013 0
1.035884 0.036009 0
1.012021 0.020719 0
0.989072 0.007137 0
0.968095 -0.005694 0
0.950696 -0.019103 0
0.938804 -0.033946 0
0.933982 -0.050098 0
0.936796 -0.066340 0
0.946807 -0.080715 0
0.962944 -0.091148 0
0.983887 -0.095923 0
1.008291 -0.093946 0
1.034877 -0.084896 0
1.062428 -0.069335 0
1.089721 -0.048799 0
1.115414 -0.025779 0
1.137846 -0.003729 0
1.155524 0.013785 0
1.168050 0.024554 0
1.175628 0.026287 0
1.177562 0.025968 0
1.000000 -0.000015 0
1.001132 -0.023949 0
1.004751 -0.049827 0
1.011851 -0.079756 0
1.024573 -0.115776 0
1.046942 -0.159279 0
1.085950 -0.208846 0
1.151228 -0.261356 0
1.265050 -0.274631 0
1.336101 -0.233591 0
1.367654 -0.180182 0
1.380270 -0.133269 0
1.383135 -0.095483 0
1.379638 -0.066762 0
1.372090 -0.047318 0
1.363533 -0.036893 0
1.357968 -0.033420 0
1.359985 -0.031745 0
1.371280 -0.024369 0
1.387750 -0.006169 0
1.399613 0.021096 0
1.400965 0.051938 0
1.392024 0.081836 0
1.374636 0.107815 0
1.350685 0.128329 0
1.321748 0.142611 0
1.289261 0.150232 0
1.254696 0.150973 0
1.219591 0.144846 0
1.185446 0.132146 0
1.153495 0.113422 0
1.124492 0.089376 0
1.098641 0.060815 0
1.075431 0.028685 0
1.053100 -0.006625 0
1.029739 -0.044337 0
1.008744 -0.081522 0
0.997223 -0.114376 0
1.001197 -0.138658 0
1.022843 -0.148833 0
1.060357 -0.139505 0
1.108777 -0.108241 0
1.160366 -0.058306 0
1.204979 -0.000963 0
1.233256 0.050572 0
1.245244 0.090822 0
1.244481 0.120069 0
1.233956 0.139391 0
1.216204 0.150068 0
1.193340 0.153306 0
1.167114 0.150120 0
1.138963 0.141343 0
1.110028 0.127744 0
1.081040 0.110245 0
1.052026 0.090150 0
1.022050 0.069134 0
0.989670 0.048741 0
0.954461 0.029446 0
0.918555 0.009774 0
0.886529 -0.013428 0
0.863663 -0.042093 0
0.853676 -0.074618 0
0.856810 -0.106530 0
0.871210 -0.132408 0
0.894559 -0.147640 0
0.924727 -0.149139 0
0.959746 -0.135564 0
0.997608 -0.107512 0
1.036059 -0.067645 0
1.072283 -0.020976 0
1.101987 0.024952 0
1.122629 0.064193 0
1.134287 0.094526 0
1.137628 0.115095 0
1.133616 0.125914 0
1.123327 0.127738 0
1.107830 0.121943 0
1.088089 0.110401 0
1.064874 0.095303 0
1.038743 0.078853 0
1.010257 0.062761 0
0.980433 0.047674 0
0.951152 0.032933 0
0.925050 0.017007 0
0.904751 -0.001710 0
0.892055 -0.023825 0
0.887633 -0.048179 0
0.890988 -0.072287 0
0.900946 -0.093392 0
0.916182 -0.109162 0
0.935492 -0.117930 0
0.957838 -0.118743 0
0.982301 -0.111403 0
1.008014 -0.096533 0
1.034098 -0.075637 0
1.059590 -0.051075 0
1.083358 -0.025908 0
1.103866 -0.003731 0
1.119641 0.012313 0
1.130144 0.019816 0
1.134300 0.023150 0
1.000000 -0.000019 0
0.999953 -0.025307 0
0.999928 -0.053136 0
1.000615 -0.086625 0
1.003810 -0.129622 0
1.013735 -0.186808 0
1.040006 -0.261406 0
1.102289 -0.363819 0
1.264918 -0.378025 0
1.312293 -0.278536 0
1.299336 -0.190325 0
1.280336 -0.130336 0
1.261942 -0.086362 0
1.242121 -0.053465 0
1.219707 -0.031938 0
1.195289 -0.023026 0
1.172718 -0.026441 0
1.159519 -0.036551 0
1.164284 -0.040883 0
1.188235 -0.026057 0
1.220240 0.008893 0
1.241029 0.051643 0
1.247348 0.091888 0
1.243538 0.125915 0
1.231869 0.152650 0
1.213430 0.171730 0
1.189140 0.182800 0
1.160210 0.185534 0
1.128188 0.179881 0
1.094665 0.166306 0
1.060437 0.145859 0
1.024319 0.119916 0
0.983173 0.090021 0
0.934898 0.058312 0
0.882318 0.026726 0
0.832797 -0.007762 0
0.795231 -0.050225 0
0.777876 -0.098819 0
0.782362 -0.144460 0
0.806355 -0.175786 0
0.846632 -0.183717 0
0.899644 -0.163845 0
0.960943 -0.117422 0
1.024161 -0.052063 0
1.079091 0.016182 0
1.117026 0.073058 0
1.139106 0.115629 0
1.148008 0.145467 0
1.146098 0.164228 0
1.135493 0.173456 0
1.118065 0.174475 0
1.095358 0.168434 0
1.068387 0.156549 0
1.037324 0.140528 0
1.001385 0.122819 0
0.959623 0.105884 0
0.912836 0.090266 0
0.865247 0.073114 0
0.823856 0.049503 0
0.795057 0.015995 0
0.781199 -0.026850 0
0.780627 -0.073738 0
0.789957 -0.117385 0
0.806390 -0.152085 0
0.828331 -0.174001 0
0.854986 -0.180636 0
0.885726 -0.170791 0
0.919641 -0.144901 0
0.955387 -0.105312 0
0.991188 -0.056234 0
1.024462 -0.004160 0
1.051272 0.043542 0
1.070199 0.082431 0
1.081090 0.111084 0
1.084272 0.129224 0
1.080305 0.137500 0
1.069798 0.137335 0
1.053285 0.130764 0
1.031218 0.120152 0
1.004195 0.107626 0
0.973428 0.094316 0
0.941182 0.079821 0
0.910690 0.062516 0
0.885383 0.040704 0
0.867798 0.013889 0
0.858720 -0.016831 0
0.857384 -0.049033 0
0.862349 -0.079655 0
0.872192 -0.105910 0
0.885812 -0.125695 0
0.902427 -0.137580 0
0.921461 -0.140756 0
0.942398 -0.135072 0
0.964683 -0.121133 0
0.987666 -0.100375 0
1.010580 -0.075039 0
1.032509 -0.048005 0
1.052346 -0.022497 0
1.068638 -0.001723 0
1.080102 0.011628 0
1.085388 0.018650 0
1.000000 -0.000022 0
0.998529 -0.023872 0
0.993984 -0.050485 0
0.986194 -0.083634 0
0.975259 -0.128893 0
0.962630 -0.195472 0
0.954582 -0.297396 0
0.973171 -0.486265 0
1.131428 -0.484630 0
1.119128 -0.268004 0
1.016591 -0.148221 0
0.960515 -0.095871 0
0.925855 -0.057264 0
0.893292 -0.024524 0
0.850272 -0.000484 0
0.802176 0.010098 0
0.758548 0.002352 0
0.729906 -0.023309 0
0.731216 -0.053084 0
0.769041 -0.062124 0
0.833471 -0.031699 0
0.901541 0.024830 0
0.951289 0.079328 0
0.982267 0.123295 0
1.000199 0.158438 0
1.006075 0.185342 0
1.000334 0.203455 0
0.983697 0.211929 0
0.956811 0.210395 0
0.919646 0.199900 0
0.871351 0.183771 0
0.811544 0.166643 0
0.742910 0.150239 0
0.673182 0.129543 0
0.614502 0.095479 0
0.578714 0.042753 0
0.568801 -0.026599 0
0.578425 -0.101504 0
0.600673 -0.167135 0
0.632129 -0.213101 0
0.672418 -0.232792 0
0.722046 -0.222552 0
0.780489 -0.182822 0
0.845257 -0.119110 0
0.911339 -0.042292 0
0.968342 0.030808 0
1.009610 0.089086 0
1.036391 0.132398 0
1.050230 0.162582 0
1.052664 0.181339 0
1.045114 0.190256 0
1.028618 0.191022 0
1.003531 0.185779 0
0.969516 0.177249 0
0.926479 0.167853 0
0.876544 0.157685 0
0.825554 0.143119 0
0.781833 0.118429 0
0.752280 0.079965 0
0.739106 0.029230 0
0.739704 -0.027661 0
0.748561 -0.083374 0
0.761529 -0.132292 0
0.776759 -0.170781 0
0.794044 -0.196236 0
0.814013 -0.206532 0
0.837376 -0.200217 0
0.864305 -0.177173 0
0.894174 -0.139192 0
0.925675 -0.090050 0
0.957039 -0.035132 0
0.985340 0.018456 0
1.007660 0.064708 0
1.023010 0.101021 0
1.031029 0.126697 0
1.031682 0.142211 0
1.025071 0.148961 0
1.011391 0.148979 0
0.991109 0.144392 0
0.965356 0.136641 0
0.936323 0.125772 0
0.907205 0.110410 0
0.881501 0.088730 0
0.861952 0.059898 0
0.849836 0.024953 0
0.844971 -0.013412 0
0.846071 -0.051808 0
0.851562 -0.087095 0
0.860189 -0.116854 0
0.871154 -0.139395 0
0.884049 -0.153578 0
0.898700 -0.158712 0
0.914984 -0.154623 0
0.932674 -0.141799 0
0.951348 -0.121532 0
0.970380 -0.095914 0
0.988970 -0.067671 0
1.006161 -0.039858 0
1.020849 -0.015439 0
1.031733 0.003070 0
1.037232 0.013452 0
1.000000 -0.000024 0
0.997152 -0.019286 0
0.988171 -0.040798 0
0.971685 -0.067896 0
0.945008 -0.106056 0
0.903314 -0.166129 0
0.837742 -0.271944 0
0.732559 -0.540660 0
0.547588 -0.523978 0
0.000367 -0.163694 0
0.400428 -0.031709 0
0.332588 -0.039597 0
0.319971 -0.019135 0
0.310790 0.022120 0
0.284610 0.059179 0
0.245472 0.068700 0
0.212825 0.045830 0
0.204918 -0.009218 0
0.231170 -0.080017 0
0.290124 -0.128312 0
0.375887 -0.123607 0
0.477593 -0.066175 0
0.576040 0.011163 0
0.652211 0.077006 0
0.704574 0.128843 0
0.737124 0.171598 0
0.750428 0.205181 0
0.744674 0.229060 0
0.719725 0.243937 0
0.675757 0.251770 0
0.615375 0.253963 0
0.546595 0.248359 0
0.483407 0.228387 0
0.440726 0.186725 0
0.426558 0.121197 0
0.438608 0.037942 0
0.466113 -0.049934 0
0.495910 -0.130689 0
0.523085 -0.198162 0
0.548760 -0.247529 0
0.576845 -0.273632 0
0.611801 -0.271915 0
0.656520 -0.240633 0
0.710881 -0.182912 0
0.771765 -0.106904 0
0.833245 -0.025213 0
0.885067 0.047580 0
0.923212 0.104847 0
0.948065 0.147954 0
0.960212 0.178572 0
0.960229 0.198522 0
0.948444 0.210018 0
0.924998 0.215653 0
0.890631 0.217581 0
0.848208 0.215793 0
0.803820 0.206812 0
0.765606 0.184979 0
0.740238 0.146390 0
0.729829 0.092232 0
0.731919 0.028572 0
0.741761 -0.036304 0
0.754513 -0.095562 0
0.767212 -0.145582 0
0.778733 -0.184599 0
0.789417 -0.211254 0
0.800657 -0.223967 0
0.814256 -0.221081 0
0.831612 -0.201699 0
0.853065 -0.166682 0
0.877797 -0.119098 0
0.904197 -0.063824 0
0.930182 -0.007079 0
0.952586 0.044760 0
0.969519 0.087714 0
0.979993 0.120551 0
0.983458 0.143457 0
0.979662 0.157624 0
0.968732 0.164726 0
0.951463 0.166186 0
0.929638 0.162411 0
0.906047 0.152466 0
0.883952 0.134643 0
0.866139 0.107769 0
0.854144 0.072368 0
0.848114 0.030871 0
0.847260 -0.013064 0
0.850286 -0.055622 0
0.855846 -0.093770 0
0.862915 -0.125499 0
0.870898 -0.149552 0
0.879621 -0.165122 0
0.889229 -0.171687 0
0.899996 -0.169041 0
0.912100 -0.157491 0
0.925450 -0.138075 0
0.939628 -0.112655 0
0.953943 -0.083780 0
0.967525 -0.054370 0
0.979391 -0.027289 0
0.988523 -0.004749 0
0.993522 0.008358 0
1.000000 -0.000025 0
0.996219 -0.012039 0
0.984237 -0.025014 0
0.961863 -0.040467 0
0.924490 -0.060519 0
0.862902 -0.088203 0
0.757479 -0.126638 0
0.564987 -0.196107 0
0.073624 -0.000234 0
-0.532306 0.122152 0
0.000000 -0.000068 0
-0.031169 -0.025832 0
-0.048391 -0.035463 0
-0.077797 0.010838 0
-0.106462 0.064836 0
-0.131435 0.081884 0
-0.139916 0.042906 0
-0.116740 -0.041653 0
-0.071993 -0.138289 0
-0.015365 -0.206841 0
0.056983 -0.219167 0
0.147046 -0.175324 0
0.249458 -0.095289 0
0.346972 -0.005237 0
0.421078 0.073528 0
0.470052 0.139491 0
0.495922 0.195908 0
0.499423 0.242636 0
0.482082 0.279317 0
0.448508 0.304254 0
0.408252 0.312936 0
0.374914 0.298613 0
0.361171 0.256112 0
0.372661 0.186395 0
0.405601 0.097600 0
0.448994 0.003202 0
0.488704 -0.083899 0
0.519093 -0.158475 0
0.539257 -0.219983 0
0.551249 -0.266860 0
0.559849 -0.295833 0
0.571694 -0.302226 0
0.593145 -0.281901 0
0.627534 -0.234355 0
0.673680 -0.164656 0
0.726776 -0.082494 0
0.779105 -0.000880 0
0.821540 0.069401 0
0.851706 0.125583 0
0.869140 0.169175 0
0.873720 0.202025 0
0.865595 0.226254 0
0.845741 0.243594 0
0.817006 0.254041 0
0.784885 0.254665 0
0.756709 0.240289 0
0.738883 0.206703 0
0.734046 0.154208 0
0.740581 0.088286 0
0.754487 0.017300 0
0.770968 -0.050253 0
0.786312 -0.108824 0