# vtk DataFile Version 2.0
generated by CFD-lab course output (written by Tobias Neckel) 
ASCII

DATASET STRUCTURED_GRID
DIMENSIONS  101 21 1 
POINTS 2121 float

0.000000 0.000000 0
0.100000 0.000000 0
0.200000 0.000000 0
0.300000 0.000000 0
0.400000 0.000000 0
0.500000 0.000000 0
0.600000 0.000000 0
0.700000 0.000000 0
0.800000 0.000000 0
0.900000 0.000000 0
1.000000 0.000000 0
1.100000 0.000000 0
1.200000 0.000000 0
1.300000 0.000000 0
1.400000 0.000000 0
1.500000 0.000000 0
1.600000 0.000000 0
1.700000 0.000000 0
1.800000 0.000000 0
1.900000 0.000000 0
2.000000 0.000000 0
2.100000 0.000000 0
2.200000 0.000000 0
2.300000 0.000000 0
2.400000 0.000000 0
2.500000 0.000000 0
2.600000 0.000000 0
2.700000 0.000000 0
2.800000 0.000000 0
2.900000 0.000000 0
3.000000 0.000000 0
3.100000 0.000000 0
3.200000 0.000000 0
3.300000 0.000000 0
3.400000 0.000000 0
3.500000 0.000000 0
3.600000 0.000000 0
3.700000 0.000000 0
3.800000 0.000000 0
3.900000 0.000000 0
4.000000 0.000000 0
4.100000 0.000000 0
4.200000 0.000000 0
4.300000 0.000000 0
4.400000 0.000000 0
4.500000 0.000000 0
4.600000 0.000000 0
4.700000 0.000000 0
4.800000 0.000000 0
4.900000 0.000000 0
5.000000 0.000000 0
5.100000 0.000000 0
5.200000 0.000000 0
5.300000 0.000000 0
5.400000 0.000000 0
5.500000 0.000000 0
5.600000 0.000000 0
5.700000 0.000000 0
5.800000 0.000000 0
5.900000 0.000000 0
6.000000 0.000000 0
6.100000 0.000000 0
6.200000 0.000000 0
6.300000 0.000000 0
6.400000 0.000000 0
6.500000 0.000000 0
6.600000 0.000000 0
6.700000 0.000000 0
6.800000 0.000000 0
6.900000 0.000000 0
7.000000 0.000000 0
7.100000 0.000000 0
7.200000 0.000000 0
7.300000 0.000000 0
7.400000 0.000000 0
7.500000 0.000000 0
7.600000 0.000000 0
7.700000 0.000000 0
7.800000 0.000000 0
7.900000 0.000000 0
8.000000 0.000000 0
8.100000 0.000000 0
8.200000 0.000000 0
8.300000 0.000000 0
8.400000 0.000000 0
8.500000 0.000000 0
8.600000 0.000000 0
8.700000 0.000000 0
8.800000 0.000000 0
8.900000 0.000000 0
9.000000 0.000000 0
9.100000 0.000000 0
9.200000 0.000000 0
9.300000 0.000000 0
9.400000 0.000000 0
9.500000 0.000000 0
9.600000 0.000000 0
9.700000 0.000000 0
9.800000 0.000000 0
9.900000 0.000000 0
10.000000 0.000000 0
0.000000 0.100000 0
0.100000 0.100000 0
0.200000 0.100000 0
0.300000 0.100000 0
0.400000 0.100000 0
0.500000 0.100000 0
0.600000 0.100000 0
0.700000 0.100000 0
0.800000 0.100000 0
0.900000 0.100000 0
1.000000 0.100000 0
1.100000 0.100000 0
1.200000 0.100000 0
1.300000 0.100000 0
1.400000 0.100000 0
1.500000 0.100000 0
1.600000 0.100000 0
1.700000 0.100000 0
1.800000 0.100000 0
1.900000 0.100000 0
2.000000 0.100000 0
2.100000 0.100000 0
2.200000 0.100000 0
2.300000 0.100000 0
2.400000 0.100000 0
2.500000 0.100000 0
2.600000 0.100000 0
2.700000 0.100000 0
2.800000 0.100000 0
2.900000 0.100000 0
3.000000 0.100000 0
3.100000 0.100000 0
3.200000 0.100000 0
3.300000 0.100000 0
3.400000 0.100000 0
3.500000 0.100000 0
3.600000 0.100000 0
3.700000 0.100000 0
3.800000 0.100000 0
3.900000 0.100000 0
4.000000 0.100000 0
4.100000 0.100000 0
4.200000 0.100000 0
4.300000 0.100000 0
4.400000 0.100000 0
4.500000 0.100000 0
4.600000 0.100000 0
4.700000 0.100000 0
4.800000 0.100000 0
4.900000 0.100000 0
5.000000 0.100000 0
5.100000 0.100000 0
5.200000 0.100000 0
5.300000 0.100000 0
5.400000 0.100000 0
5.500000 0.100000 0
5.600000 0.100000 0
5.700000 0.100000 0
5.800000 0.100000 0
5.900000 0.100000 0
6.000000 0.100000 0
6.100000 0.100000 0
6.200000 0.100000 0
6.300000 0.100000 0
6.400000 0.100000 0
6.500000 0.100000 0
6.600000 0.100000 0
6.700000 0.100000 0
6.800000 0.100000 0
6.900000 0.100000 0
7.000000 0.100000 0
7.100000 0.100000 0
7.200000 0.100000 0
7.300000 0.100000 0
7.400000 0.100000 0
7.500000 0.100000 0
7.600000 0.100000 0
7.700000 0.100000 0
7.800000 0.100000 0
7.900000 0.100000 0
8.000000 0.100000 0
8.100000 0.100000 0
8.200000 0.100000 0
8.300000 0.100000 0
8.400000 0.100000 0
8.500000 0.100000 0
8.600000 0.100000 0
8.700000 0.100000 0
8.800000 0.100000 0
8.900000 0.100000 0
9.000000 0.100000 0
9.100000 0.100000 0
9.200000 0.100000 0
9.300000 0.100000 0
9.400000 0.100000 0
9.500000 0.100000 0
9.600000 0.100000 0
9.700000 0.100000 0
9.800000 0.100000 0
9.900000 0.100000 0
10.000000 0.100000 0
0.000000 0.200000 0
0.100000 0.200000 0
0.200000 0.200000 0
0.300000 0.200000 0
0.400000 0.200000 0
0.500000 0.200000 0
0.600000 0.200000 0
0.700000 0.200000 0
0.800000 0.200000 0
0.900000 0.200000 0
1.000000 0.200000 0
1.100000 0.200000 0
1.200000 0.200000 0
1.300000 0.200000 0
1.400000 0.200000 0
1.500000 0.200000 0
1.600000 0.200000 0
1.700000 0.200000 0
1.800000 0.200000 0
1.900000 0.200000 0
2.000000 0.200000 0
2.100000 0.200000 0
2.200000 0.200000 0
2.300000 0.200000 0
2.400000 0.200000 0
2.500000 0.200000 0
2.600000 0.200000 0
2.700000 0.200000 0
2.800000 0.200000 0
2.900000 0.200000 0
3.000000 0.200000 0
3.100000 0.200000 0
3.200000 0.200000 0
3.300000 0.200000 0
3.400000 0.200000 0
3.500000 0.200000 0
3.600000 0.200000 0
3.700000 0.200000 0
3.800000 0.200000 0
3.900000 0.200000 0
4.000000 0.200000 0
4.100000 0.200000 0
4.200000 0.200000 0
4.300000 0.200000 0
4.400000 0.200000 0
4.500000 0.200000 0
4.600000 0.200000 0
4.700000 0.200000 0
4.800000 0.200000 0
4.900000 0.200000 0
5.000000 0.200000 0
5.100000 0.200000 0
5.200000 0.200000 0
5.300000 0.200000 0
5.400000 0.200000 0
5.500000 0.200000 0
5.600000 0.200000 0
5.700000 0.200000 0
5.800000 0.200000 0
5.900000 0.200000 0
6.000000 0.200000 0
6.100000 0.200000 0
6.200000 0.200000 0
6.300000 0.200000 0
6.400000 0.200000 0
6.500000 0.200000 0
6.600000 0.200000 0
6.700000 0.200000 0
6.800000 0.200000 0
6.900000 0.200000 0
7.000000 0.200000 0
7.100000 0.200000 0
7.200000 0.200000 0
7.300000 0.200000 0
7.400000 0.200000 0
7.500000 0.200000 0
7.600000 0.200000 0
7.700000 0.200000 0
7.800000 0.200000 0
7.900000 0.200000 0
8.000000 0.200000 0
8.100000 0.200000 0
8.200000 0.200000 0
8.300000 0.200000 0
8.400000 0.200000 0
8.500000 0.200000 0
8.600000 0.200000 0
8.700000 0.200000 0
8.800000 0.200000 0
8.900000 0.200000 0
9.000000 0.200000 0
9.100000 0.200000 0
9.200000 0.200000 0
9.300000 0.200000 0
9.400000 0.200000 0
9.500000 0.200000 0
9.600000 0.200000 0
9.700000 0.200000 0
9.800000 0.200000 0
9.900000 0.200000 0
10.000000 0.200000 0
0.000000 0.300000 0
0.100000 0.300000 0
0.200000 0.300000 0
0.300000 0.300000 0
0.400000 0.300000 0
0.500000 0.300000 0
0.600000 0.300000 0
0.700000 0.300000 0
0.800000 0.300000 0
0.900000 0.300000 0
1.000000 0.300000 0
1.100000 0.300000 0
1.200000 0.300000 0
1.300000 0.300000 0
1.400000 0.300000 0
1.500000 0.300000 0
1.600000 0.300000 0
1.700000 0.300000 0
1.800000 0.300000 0
1.900000 0.300000 0
2.000000 0.300000 0
2.100000 0.300000 0
2.200000 0.300000 0
2.300000 0.300000 0
2.400000 0.300000 0
2.500000 0.300000 0
2.600000 0.300000 0
2.700000 0.300000 0
2.800000 0.300000 0
2.900000 0.300000 0
3.000000 0.300000 0
3.100000 0.300000 0
3.200000 0.300000 0
3.300000 0.300000 0
3.400000 0.300000 0
3.500000 0.300000 0
3.600000 0.300000 0
3.700000 0.300000 0
3.800000 0.300000 0
3.900000 0.300000 0
4.000000 0.300000 0
4.100000 0.300000 0
4.200000 0.300000 0
4.300000 0.300000 0
4.400000 0.300000 0
4.500000 0.300000 0
4.600000 0.300000 0
4.700000 0.300000 0
4.800000 0.300000 0
4.900000 0.300000 0
5.000000 0.300000 0
5.100000 0.300000 0
5.200000 0.300000 0
5.300000 0.300000 0
5.400000 0.300000 0
5.500000 0.300000 0
5.600000 0.300000 0
5.700000 0.300000 0
5.800000 0.300000 0
5.900000 0.300000 0
6.000000 0.300000 0
6.100000 0.300000 0
6.200000 0.300000 0
6.300000 0.300000 0
6.400000 0.300000 0
6.500000 0.300000 0
6.600000 0.300000 0
6.700000 0.300000 0
6.800000 0.300000 0
6.900000 0.300000 0
7.000000 0.300000 0
7.100000 0.300000 0
7.200000 0.300000 0
7.300000 0.300000 0
7.400000 0.300000 0
7.500000 0.300000 0
7.600000 0.300000 0
7.700000 0.300000 0
7.800000 0.300000 0
7.900000 0.300000 0
8.000000 0.300000 0
8.100000 0.300000 0
8.200000 0.300000 0
8.300000 0.300000 0
8.400000 0.300000 0
8.500000 0.300000 0
8.600000 0.300000 0
8.700000 0.300000 0
8.800000 0.300000 0
8.900000 0.300000 0
9.000000 0.300000 0
9.100000 0.300000 0
9.200000 0.300000 0
9.300000 0.300000 0
9.400000 0.300000 0
9.500000 0.300000 0
9.600000 0.300000 0
9.700000 0.300000 0
9.800000 0.300000 0
9.900000 0.300000 0
10.000000 0.300000 0
0.000000 0.400000 0
0.100000 0.400000 0
0.200000 0.400000 0
0.300000 0.400000 0
0.400000 0.400000 0
0.500000 0.400000 0
0.600000 0.400000 0
0.700000 0.400000 0
0.800000 0.400000 0
0.900000 0.400000 0
1.000000 0.400000 0
1.100000 0.400000 0
1.200000 0.400000 0
1.300000 0.400000 0
1.400000 0.400000 0
1.500000 0.400000 0
1.600000 0.400000 0
1.700000 0.400000 0
1.800000 0.400000 0
1.900000 0.400000 0
2.000000 0.400000 0
2.100000 0.400000 0
2.200000 0.400000 0
2.300000 0.400000 0
2.400000 0.400000 0
2.500000 0.400000 0
2.600000 0.400000 0
2.700000 0.400000 0
2.800000 0.400000 0
2.900000 0.400000 0
3.000000 0.400000 0
3.100000 0.400000 0
3.200000 0.400000 0
3.300000 0.400000 0
3.400000 0.400000 0
3.500000 0.400000 0
3.600000 0.400000 0
3.700000 0.400000 0
3.800000 0.400000 0
3.900000 0.400000 0
4.000000 0.400000 0
4.100000 0.400000 0
4.200000 0.400000 0
4.300000 0.400000 0
4.400000 0.400000 0
4.500000 0.400000 0
4.600000 0.400000 0
4.700000 0.400000 0
4.800000 0.400000 0
4.900000 0.400000 0
5.000000 0.400000 0
5.100000 0.400000 0
5.200000 0.400000 0
5.300000 0.400000 0
5.400000 0.400000 0
5.500000 0.400000 0
5.600000 0.400000 0
5.700000 0.400000 0
5.800000 0.400000 0
5.900000 0.400000 0
6.000000 0.400000 0
6.100000 0.400000 0
6.200000 0.400000 0
6.300000 0.400000 0
6.400000 0.400000 0
6.500000 0.400000 0
6.600000 0.400000 0
6.700000 0.400000 0
6.800000 0.400000 0
6.900000 0.400000 0
7.000000 0.400000 0
7.100000 0.400000 0
7.200000 0.400000 0
7.300000 0.400000 0
7.400000 0.400000 0
7.500000 0.400000 0
7.600000 0.400000 0
7.700000 0.400000 0
7.800000 0.400000 0
7.900000 0.400000 0
8.000000 0.400000 0
8.100000 0.400000 0
8.200000 0.400000 0
8.300000 0.400000 0
8.400000 0.400000 0
8.500000 0.400000 0
8.600000 0.400000 0
[...]
POINT_DATA 2121 

VECTORS velocity float
0.500000 0.000000 0
0.000000 0.000000 0
-0.000000 0.000000 0
0.000004 0.000000 0
0.000015 0.000000 0
0.000028 0.000000 0
0.000052 0.000000 0
0.000088 0.000000 0
0.000134 0.000000 0
0.000190 0.000000 0
0.000252 0.000000 0
0.000314 0.000000 0
0.000365 0.000000 0
0.000389 0.000000 0
0.000369 0.000000 0
0.000289 0.000000 0
0.000136 0.000000 0
-0.000095 0.000000 0
-0.000403 0.000000 0
-0.000778 0.000000 0
-0.001190 0.000000 0
-0.001599 0.000000 0
-0.001943 0.000000 0
-0.002134 0.000000 0
-0.002092 0.000000 0
-0.001781 0.000000 0
-0.001229 0.000000 0
-0.000505 0.000000 0
0.000304 0.000000 0
0.001104 0.000000 0
0.001828 0.000000 0
0.002427 0.000000 0
0.002875 0.000000 0
0.003156 0.000000 0
0.003263 0.000000 0
0.003189 0.000000 0
0.002933 0.000000 0
0.002492 0.000000 0
0.001865 0.000000 0
0.001044 0.000000 0
0.000015 0.000000 0
-0.001205 0.000000 0
-0.002500 0.000000 0
-0.003761 0.000000 0
-0.004855 0.000000 0
-0.005623 0.000000 0
-0.005908 0.000000 0
-0.005593 0.000000 0
-0.004653 0.000000 0
-0.003203 0.000000 0
-0.001495 0.000000 0
0.000191 0.000000 0
0.001743 0.000000 0
0.003080 0.000000 0
0.004136 0.000000 0
0.004878 0.000000 0
0.005301 0.000000 0
0.005418 0.000000 0
0.005252 0.000000 0
0.004824 0.000000 0
0.004151 0.000000 0
0.003246 0.000000 0
0.002130 0.000000 0
0.000847 0.000000 0
-0.000484 0.000000 0
-0.001682 0.000000 0
-0.002718 0.000000 0
-0.003608 0.000000 0
-0.004366 0.000000 0
-0.004991 0.000000 0
-0.005455 0.000000 0
-0.005693 0.000000 0
-0.005608 0.000000 0
-0.005097 0.000000 0
-0.004100 0.000000 0
-0.002670 0.000000 0
-0.001003 0.000000 0
0.000701 0.000000 0
0.002349 0.000000 0
0.003838 0.000000 0
0.005060 0.000000 0
0.005911 0.000000 0
0.006302 0.000000 0
0.006171 0.000000 0
0.005503 0.000000 0
0.004358 0.000000 0
0.002876 0.000000 0
0.001259 0.000000 0
-0.000260 0.000000 0
-0.001434 0.000000 0
-0.002258 0.000000 0
-0.002842 0.000000 0
-0.003278 0.000000 0
-0.003637 0.000000 0
-0.003966 0.000000 0
-0.004283 0.000000 0
-0.004579 0.000000 0
-0.004827 0.000000 0
-0.004991 0.000000 0
-0.005048 0.000000 0
-0.005181 0.000000 0
1.000000 0.000001 0
1.002696 -0.004886 0
1.011043 -0.010563 0
1.025426 -0.016701 0
1.046242 -0.023078 0
1.073711 -0.029292 0
1.107551 -0.034642 0
1.146566 -0.038179 0
1.188345 -0.038935 0
1.229146 -0.036540 0
1.265524 -0.031539 0
1.295296 -0.024937 0
1.317523 -0.017715 0
1.332156 -0.010638 0
1.339761 -0.004270 0
1.341350 0.000980 0
1.338249 0.004848 0
1.331982 0.007195 0
1.324177 0.007989 0
1.316440 0.007328 0
1.310212 0.005454 0
1.306621 0.002765 0
1.306318 -0.000164 0
1.309238 -0.002567 0
1.314418 -0.003669 0
1.320060 -0.002977 0
1.323968 -0.000448 0
1.324190 0.003571 0
1.319449 0.008493 0
1.309227 0.013673 0
1.293651 0.018562 0
1.273323 0.022765 0
1.249146 0.026026 0
1.222197 0.028196 0
1.193647 0.029188 0
1.164716 0.028958 0
1.136651 0.027479 0
1.110711 0.024738 0
1.088149 0.020710 0
1.070201 0.015335 0
1.058050 0.008534 0
1.052775 0.000453 0
1.055280 -0.008314 0
1.066136 -0.016961 0
1.085287 -0.024629 0
1.111756 -0.030340 0
1.143529 -0.033133 0
1.177626 -0.032293 0
1.210361 -0.027625 0
1.237833 -0.019699 0
1.256695 -0.009865 0
1.264977 0.000353 0
1.262506 0.009980 0
1.250273 0.018476 0
1.229803 0.025425 0
1.202936 0.030576 0
1.171644 0.033835 0
1.137899 0.035220 0
1.103585 0.034808 0
1.070467 0.032685 0
1.040169 0.028920 0
1.014141 0.023571 0
0.993580 0.016756 0
0.979308 0.008782 0
0.971684 0.000411 0
0.970674 -0.007376 0
0.975898 -0.014082 0
0.986799 -0.019702 0
1.002769 -0.024316 0
1.023199 -0.027953 0
1.047455 -0.030509 0
1.074772 -0.031692 0
1.104051 -0.031031 0
1.133653 -0.028000 0
1.161335 -0.022290 0
1.184391 -0.014154 0
1.200046 -0.004537 0
1.206116 0.005482 0
1.201889 0.015205 0
1.187934 0.024083 0
1.165458 0.031518 0
1.136234 0.036920 0
1.102523 0.039751 0
1.066944 0.039598 0
1.032260 0.036307 0
1.001063 0.030124 0
0.975384 0.021788 0
0.956363 0.012462 0
0.944151 0.003568 0
0.938137 -0.003565 0
0.937323 -0.008506 0
0.940470 -0.011699 0
0.946469 -0.013696 0
0.954528 -0.014929 0
0.964150 -0.015671 0
0.975045 -0.016028 0
0.986984 -0.015943 0
0.999637 -0.015228 0
1.012434 -0.013617 0
1.024537 -0.011312 0
1.034469 -0.010205 0
1.000000 -0.000000 0
1.003019 -0.011051 0
1.011841 -0.022734 0
1.026806 -0.035203 0
1.048542 -0.048291 0
1.077706 -0.061317 0
1.114576 -0.072866 0
1.158358 -0.080807 0
1.206577 -0.082595 0
1.253287 -0.077196 0
1.293704 -0.066169 0
1.325675 -0.052021 0
1.348775 -0.036884 0
1.363389 -0.022263 0
1.370360 -0.009220 0
1.370912 0.001489 0
1.366514 0.009350 0
1.358830 0.014058 0
1.349667 0.015533 0
1.340818 0.013960 0
1.333927 0.009816 0
1.330354 0.003892 0
1.331053 -0.002621 0
1.336205 -0.008108 0
1.344778 -0.010829 0
1.354435 -0.009555 0
1.362147 -0.004136 0
1.365342 0.004512 0
1.362643 0.014955 0
1.353682 0.025789 0
1.338820 0.035893 0
1.318878 0.044493 0
1.294915 0.051113 0
1.268090 0.055485 0
1.239600 0.057466 0
1.210654 0.056978 0
1.182460 0.053987 0
1.156213 0.048483 0
1.133075 0.040491 0
1.114130 0.030080 0
1.100329 0.017408 0
1.092479 0.002753 0
1.091435 -0.013375 0
1.098062 -0.030018 0
1.112754 -0.045629 0
1.135140 -0.058250 0
1.164049 -0.065875 0
1.197547 -0.066836 0
1.232811 -0.060212 0
1.266072 -0.046341 0
1.292979 -0.027153 0
1.309623 -0.005820 0
1.314203 0.014695 0
1.307682 0.032692 0
1.291880 0.047325 0
1.268888 0.058146 0
1.240854 0.065025 0
1.209846 0.068047 0
1.177766 0.067418 0
1.146301 0.063402 0
1.116878 0.056312 0
1.090606 0.046575 0
1.068214 0.034819 0
1.050027 0.021881 0
1.036072 0.008619 0
1.026446 -0.004229 0
1.021348 -0.016139 0
1.020792 -0.026883 0
1.024720 -0.036411 0
1.033146 -0.044695 0
1.046212 -0.051582 0
1.064066 -0.056603 0
1.086552 -0.058887 0
1.112891 -0.057291 0
1.141521 -0.050745 0
1.170070 -0.038717 0
1.195436 -0.021732 0
1.214160 -0.001850 0
1.223572 0.018176 0
1.223232 0.036427 0
1.214072 0.051697 0
1.197583 0.062934 0
1.175637 0.069291 0
1.150280 0.070267 0
1.123502 0.065886 0
1.097014 0.056882 0
1.072088 0.044708 0
1.049535 0.031244 0
1.029812 0.018240 0
1.013251 0.006844 0
1.000184 -0.002315 0
0.990520 -0.009126 0
0.983855 -0.014036 0
0.979802 -0.017658 0
0.978202 -0.020493 0
0.979103 -0.022810 0
0.982610 -0.024566 0
0.988686 -0.025423 0
0.996958 -0.024873 0
1.006684 -0.022009 0
1.015697 -0.020293 0
1.000000 0.000000 0
1.002623 -0.016732 0
1.010636 -0.034351 0
1.024669 -0.053406 0
1.045861 -0.073983 0
1.075733 -0.095332 0
1.115810 -0.115301 0
1.166455 -0.130187 0
1.226244 -0.133872 0
1.282300 -0.123676 0
1.327356 -0.103936 0
1.360441 -0.080018 0
1.382678 -0.055439 0
1.395273 -0.032233 0
1.399387 -0.011802 0
1.396493 0.004823 0
1.388172 0.016930 0
1.376303 0.024043 0
1.362987 0.026004 0
1.350361 0.023069 0
1.340394 0.015918 0
1.334762 0.005636 0
1.334907 -0.006022 0
1.341681 -0.016298 0
1.354189 -0.021900 0
1.369297 -0.020349 0
1.382422 -0.011359 0
1.389471 0.003071 0
1.388708 0.020147 0
1.380156 0.037490 0
1.364707 0.053359 0
1.343631 0.066664 0
1.318277 0.076808 0
1.289941 0.083503 0
1.259844 0.086616 0
1.229155 0.086090 0
1.199011 0.081913 0
1.170521 0.074114 0
1.144754 0.062784 0
1.122700 0.048075 0
1.105211 0.030180 0
1.092959 0.009343 0
1.086464 -0.013898 0
1.086258 -0.038281 0
1.092736 -0.061707 0
1.106073 -0.081636 0
1.126389 -0.095542 0
1.153645 -0.101057 0
1.186900 -0.096155 0
1.223560 -0.079873 0
1.259172 -0.053421 0
1.288069 -0.020877 0
1.305115 0.011915 0
1.308894 0.040793 0
1.301397 0.064214 0
1.285007 0.081597 0
1.262120 0.092871 0
1.234971 0.098302 0
1.205531 0.098347 0
1.175458 0.093567 0
1.146065 0.084609 0
1.118325 0.072229 0
1.092915 0.057329 0
1.070272 0.040917 0
1.050624 0.023986 0
1.033925 0.007344 0
1.019973 -0.008432 0
1.008640 -0.023077 0
1.000303 -0.036673 0
0.995937 -0.049447 0
0.996873 -0.061432 0
1.004371 -0.072035 0
1.018975 -0.079858 0
1.040227 -0.082972 0
1.066749 -0.079472 0
1.096490 -0.068072 0
1.126912 -0.048631 0
1.155037 -0.022658 0
1.177388 0.006131 0
1.191199 0.033581 0
1.196281 0.057167 0
1.193425 0.075356 0
1.183836 0.087055 0
1.168887 0.091734 0
1.149932 0.089575 0
1.128203 0.081541 0
1.104823 0.069269 0
1.080865 0.054742 0
1.057343 0.039857 0
1.035041 0.026067 0
1.014376 0.014232 0
0.995619 0.004637 0
0.978967 -0.002973 0
0.964713 -0.009270 0
0.953396 -0.014965 0
0.945705 -0.020429 0
0.942152 -0.025519 0
0.942778 -0.029570 0
0.947038 -0.031609 0
0.953855 -0.030044 0
0.961498 -0.028955 0
1.000000 0.000001 0
1.002092 -0.021691 0
1.008642 -0.044783 0
1.020575 -0.070433 0
1.039653 -0.099361 0
1.068666 -0.131273 0
1.111404 -0.163594 0
1.171188 -0.191249 0
1.252370 -0.198449 0
1.320550 -0.178318 0
1.367252 -0.144320 0
1.397369 -0.107352 0
1.415666 -0.071725 0
1.424266 -0.038981 0
1.424098 -0.010444 0
1.416275 0.012704 0
1.402247 0.029540 0
1.384124 0.039245 0
1.364440 0.041477 0
1.345840 0.036554 0
1.330710 0.025412 0
1.320934 0.009373 0
1.318116 -0.009547 0
1.324306 -0.027392 0
1.339734 -0.038447 0
1.361268 -0.037793 0
1.382744 -0.024313 0
1.397037 -0.001779 0
1.400193 0.024264 0
1.392980 0.049784 0
1.377314 0.072412 0
1.355222 0.090916 0
1.328468 0.104796 0
1.298500 0.113911 0
1.266553 0.118244 0
1.233748 0.117804 0
1.201169 0.112613 0
1.169887 0.102732 0
1.140957 0.088305 0
1.115334 0.069619 0
1.093655 0.047144 0
1.075856 0.021497 0
1.061021 -0.006675 0
1.048265 -0.036291 0
1.038469 -0.065444 0
1.033832 -0.091904 0
1.037309 -0.113450 0
1.051612 -0.127351 0
1.077602 -0.130131 0
1.113667 -0.118619 0
1.155870 -0.091667 0
1.198297 -0.051768 0
1.233700 -0.006136 0
1.255618 0.036405 0
1.263569 0.071206 0
1.259961 0.097417 0
1.247305 0.115055 0
1.227998 0.124630 0
1.204183 0.126925 0
1.177687 0.122863 0
1.149992 0.113439 0
1.122245 0.099718 0
1.095277 0.082866 0
1.069564 0.064166 0
1.045138 0.044961 0
1.021588 0.026419 0
0.998387 0.009143 0
0.975645 -0.007217 0
0.954701 -0.023710 0
0.938299 -0.041267 0
0.929488 -0.060018 0
0.930063 -0.078708 0
0.940101 -0.094746 0
0.958418 -0.105068 0
0.983223 -0.107012 0
1.012523 -0.098884 0
1.044264 -0.080283 0
1.076296 -0.052329 0
1.106130 -0.017988 0
1.130406 0.017531 0
1.146866 0.049471 0
1.155417 0.075379 0
1.156543 0.093830 0
1.151024 0.104171 0
1.139761 0.106570 0
1.123714 0.101992 0
1.103893 0.092048 0
1.081342 0.078727 0
1.057044 0.064067 0
1.031806 0.049814 0
1.006262 0.037111 0
0.981075 0.026287 0
0.957214 0.016874 0
0.935977 0.007919 0
0.918721 -0.001481 0
0.906495 -0.011561 0
0.899782 -0.021633 0
0.898303 -0.030303 0
0.901076 -0.035946 0
0.906665 -0.036464 0
0.913256 -0.036396 0
1.000000 0.000003 0
1.001258 -0.025380 0
1.005325 -0.052838 0
1.013236 -0.084422 0
1.027189 -0.122081 0
1.051279 -0.167089 0
1.092598 -0.217830 0
1.160880 -0.271161 0
1.279095 -0.283243 0
1.352924 -0.238567 0
1.386867 -0.180764 0
1.403079 -0.128441 0
1.411724 -0.082345 0
1.414404 -0.040670 0
1.409498 -0.003812 0
1.396110 0.026673 0
1.375262 0.049082 0
1.349255 0.061851 0
1.321126 0.064288 0
1.294134 0.056797 0
1.271130 0.040818 0
1.253972 0.018224 0
1.243469 -0.009397 0
1.241865 -0.037918 0
1.252710 -0.058865 0
1.275801 -0.063363 0
1.306494 -0.047133 0
1.335258 -0.014384 0
1.351168 0.024198 0
1.352210 0.060363 0
1.342316 0.091111 0
1.324668 0.115503 0
1.301437 0.133523 0
1.274110 0.145410 0
1.243831 0.151361 0
1.211636 0.151467 0
1.178549 0.145766 0
1.145610 0.134319 0
1.113841 0.117332 0
1.084082 0.095372 0
1.056535 0.069654 0
1.029997 0.041975 0
1.001808 0.013692 0
0.969953 -0.015730 0
0.936682 -0.047275 0
0.910026 -0.080478 0
0.897838 -0.113325 0
0.903029 -0.141356 0
0.924606 -0.158215 0
0.959744 -0.158145 0
1.004741 -0.138055 0
1.055091 -0.098713 0
1.105117 -0.045411 0
1.147309 0.010920 0
1.175370 0.059865 0
1.189815 0.097854 0
1.192697 0.124829 0
1.186199 0.141418 0
1.172422 0.148651 0
1.153267 0.147753 0
1.130368 0.140045 0
1.105013 0.126937 0
1.078018 0.110004 0
1.049568 0.091050 0
1.019240 0.071957 0
0.986593 0.054091 0
0.952266 0.037507 0
0.918784 0.020606 0
0.890017 0.000670 0
0.869688 -0.024237 0
0.860120 -0.053198 0
0.861364 -0.082650 0
0.871878 -0.108216 0
0.889723 -0.126099 0
0.913144 -0.133581 0
0.940638 -0.129117 0
0.970816 -0.112408 0
1.002271 -0.084526 0
1.033441 -0.047982 0
1.062260 -0.007157 0
1.085567 0.032155 0
1.101897 0.065678 0
1.110997 0.091446 0
1.113057 0.108514 0
1.108530 0.116883 0
1.098029 0.117409 0
1.082268 0.111642 0
1.061992 0.101593 0
1.037944 0.089394 0
1.010927 0.076850 0
0.982023 0.064965 0
0.952805 0.053687 0
0.925330 0.042128 0
0.901746 0.029227 0
0.883694 0.014520 0
0.871855 -0.001486 0
0.865964 -0.017324 0
0.865114 -0.030861 0
0.868008 -0.039967 0
0.873186 -0.042221 0
0.878904 -0.042911 0
1.000000 0.000005 0
1.000063 -0.027023 0
1.000437 -0.056766 0
1.001857 -0.092303 0
1.006191 -0.137410 0
1.017761 -0.196687 0
1.046350 -0.273202 0
1.111869 -0.377753 0
1.279637 -0.390501 0
1.328378 -0.286099 0
1.316704 -0.194483 0
1.301711 -0.132216 0
1.294173 -0.083056 0
1.291958 -0.036757 0
1.285021 0.007849 0
1.268303 0.046940 0
1.242051 0.076396 0
1.208458 0.093380 0
1.170807 0.096596 0
1.132912 0.086546 0
1.097925 0.065568 0
1.067231 0.037030 0
1.041109 0.002558 0
1.020524 -0.036636 0
1.013925 -0.072387 0
1.029843 -0.091581 0
1.067500 -0.083775 0
1.117902 -0.046458 0
1.165786 0.007306 0
1.196075 0.058629 0
1.209245 0.099947 0
1.210838 0.131787 0
1.203697 0.155347 0
1.189406 0.171509 0
1.169133 0.180709 0
1.143973 0.183079 0
1.115019 0.178632 0
1.083193 0.167435 0
1.048761 0.149829 0
1.010664 0.126921 0
0.966647 0.101226 0
0.915539 0.076223 0
0.860535 0.053367 0
0.809384 0.028833 0
0.770254 -0.005520 0
0.748554 -0.053063 0
0.745132 -0.106457 0
0.757290 -0.154125 0
0.782004 -0.186852 0
0.817100 -0.198758 0
0.860799 -0.187019 0
0.910930 -0.152150 0
0.964431 -0.098359 0
1.016886 -0.033854 0
1.060854 0.028694 0
1.091659 0.080085 0
1.110042 0.118665 0
1.117395 0.144899 0
1.115320 0.159851 0
1.105413 0.164910 0
1.089080 0.161687 0
1.067322 0.152062 0
1.040525 0.138305 0
1.008509 0.122939 0
0.971220 0.107931 0
0.930009 0.093389 0
0.888575 0.076949 0
0.852348 0.055029 0
0.826282 0.025383 0
0.812466 -0.011374 0
0.809829 -0.051697 0
0.815790 -0.090469 0
0.827945 -0.123109 0
0.844711 -0.146338 0
0.865198 -0.157932 0
0.888841 -0.156560 0
0.915053 -0.141919 0
0.943038 -0.114957 0
0.971751 -0.077980 0
0.999891 -0.034597 0
1.025341 0.009831 0
1.045515 0.049945 0
1.059430 0.082666 0
1.066688 0.106636 0
1.067253 0.121597 0
1.061311 0.128253 0
1.049183 0.128084 0
1.031305 0.123051 0
1.008329 0.115133 0
0.981347 0.105736 0
0.952118 0.095233 0
0.923039 0.082980 0
0.896728 0.067935 0
0.875351 0.049557 0
0.860074 0.028412 0
0.850948 0.006170 0
0.847110 -0.014891 0
0.847306 -0.032347 0
0.850272 -0.044016 0
0.854831 -0.047358 0
0.859612 -0.048477 0
1.000000 0.000006 0
0.998608 -0.025825 0
0.994362 -0.054637 0
0.987131 -0.090181 0
0.977083 -0.137991 0
0.965781 -0.207255 0
0.959695 -0.311946 0
0.981206 -0.504455 0
1.143423 -0.499760 0
1.129249 -0.275643 0
1.024719 -0.154105 0
0.967747 -0.105916 0
0.942337 -0.072595 0
0.943943 -0.031520 0
0.947263 0.019842 0
0.936745 0.069644 0
0.912033 0.108928 0
0.873081 0.133093 0
0.820596 0.139831 0
0.757299 0.129674 0
0.689963 0.106494 0
0.630317 0.075037 0
0.591315 0.037308 0
0.579641 -0.010738 0
0.594140 -0.068189 0
0.631863 -0.116942 0
0.689786 -0.135198 0
0.763866 -0.112676 0
0.846829 -0.053982 0
0.923243 0.016897 0
0.978397 0.076340 0
1.013622 0.121043 0
1.034191 0.154948 0
1.042318 0.179967 0
1.039391 0.196786 0
1.026554 0.205573 0
1.004572 0.206540 0
0.973404 0.200572 0
0.931881 0.189857 0
0.878454 0.177483 0
0.813907 0.164778 0
0.744766 0.148086 0
0.683403 0.119845 0
0.642381 0.074549 0
0.627013 0.013553 0
0.631855 -0.055361 0
0.647336 -0.122067 0
0.667985 -0.178232 0
0.692607 -0.218030 0
0.722232 -0.236945 0
0.758222 -0.231890 0
0.800894 -0.202349 0
0.848975 -0.151374 0
0.899772 -0.085509 0
0.949000 -0.014914 0
0.989520 0.048660 0
1.018752 0.099087 0
1.036916 0.136135 0
1.044734 0.160627 0
1.043102 0.173985 0
1.032789 0.178129 0
1.014219 0.175487 0
0.987508 0.168811 0
0.953109 0.160350 0
0.912975 0.150453 0
0.871389 0.136732 0
0.834222 0.115164 0
0.806651 0.082896 0
0.791032 0.040550 0
0.786580 -0.007786 0
0.790276 -0.056525 0
0.798901 -0.100771 0
0.810422 -0.137142 0
0.823980 -0.163356 0
0.839516 -0.177716 0
0.857318 -0.178977 0
0.877584 -0.166609 0
0.900118 -0.141228 0
0.924254 -0.104838 0
0.948958 -0.060751 0
0.972888 -0.013473 0
0.993674 0.031585 0
1.009582 0.070269 0
1.019708 0.100688 0
1.023565 0.122258 0
1.020939 0.135477 0
1.011848 0.141646 0
0.996614 0.142445 0
0.976066 0.139350 0
0.951737 0.133060 0
0.925878 0.123272 0
0.901096 0.109076 0
0.879729 0.089816 0
0.863273 0.065881 0
0.852177 0.038923 0
0.846021 0.011477 0
0.843881 -0.013683 0
0.844625 -0.034023 0
0.847227 -0.047492 0
0.850859 -0.051562 0
0.854625 -0.052963 0
1.000000 0.000007 0
0.997187 -0.021394 0
0.988358 -0.045295 0
0.972162 -0.075030 0
0.945956 -0.116066 0
0.904994 -0.179306 0
0.840628 -0.288635 0
0.737738 -0.561489 0
0.553643 -0.538551 0
-0.000279 -0.167402 0
0.401243 -0.032989 0
0.329987 -0.049840 0
0.337871 -0.059254 0
0.378136 -0.041684 0
0.423666 0.015047 0
0.438957 0.082170 0
0.429376 0.140059 0
0.396610 0.184815 0
0.342626 0.212374 0
0.274923 0.217173 0
0.208597 0.192547 0
0.164236 0.135675 0
0.158146 0.053231 0
0.189112 -0.039466 0
0.241306 -0.124613 0
0.302759 -0.187232 0
0.371079 -0.215785 0
0.448566 -0.203508 0
0.536921 -0.152078 0
0.632977 -0.072946 0
0.721213 0.009561 0
0.788029 0.075985 0
0.834244 0.126643 0
0.863267 0.166302 0
0.876386 0.196466 0
0.874226 0.217892 0
0.856807 0.231777 0
0.823786 0.240122 0
0.775709 0.244776 0
0.716582 0.244892 0
0.655916 0.234912 0
0.606662 0.206726 0
0.578778 0.155751 0
0.574119 0.085221 0
0.587083 0.005002 0
0.607847 -0.073391 0
0.628752 -0.142592 0
0.647073 -0.199400 0
0.663508 -0.241104 0
0.680865 -0.264378 0
0.702709 -0.265686 0
0.731735 -0.242909 0
0.768465 -0.197242 0
0.811093 -0.133885 0
0.856310 -0.061059 0
0.898949 0.010326 0
0.933177 0.071263 0
0.957546 0.118911 0
0.971737 0.153658 0
0.975795 0.176848 0
0.969820 0.190564 0
0.953969 0.197337 0
0.928912 0.199410 0
0.896731 0.197467 0
0.861574 0.189646 0
0.829098 0.172138 0
0.804466 0.141684 0
0.790265 0.098216 0
0.785988 0.045451 0
0.789188 -0.010621 0
0.796741 -0.064022 0
0.806076 -0.110619 0
0.815690 -0.148193 0
0.825102 -0.175438 0
0.834682 -0.191274 0
0.845344 -0.194632 0
0.858080 -0.184723 0
0.873463 -0.161631 0
0.891359 -0.126825 0
0.910981 -0.083235 0
0.931125 -0.034890 0
0.950094 0.013246 0
0.965748 0.056627 0
0.976786 0.092649 0
0.982368 0.120362 0
0.982010 0.139967 0
0.975596 0.152406 0
0.963521 0.158830 0
0.946862 0.160006 0
0.927427 0.155920 0
0.907509 0.145872 0
0.889355 0.129127 0
0.874610 0.105755 0
0.864015 0.077106 0
0.857491 0.045663 0
0.854432 0.014464 0
0.854014 -0.013498 0
0.855330 -0.035694 0
0.857611 -0.050252 0
0.860343 -0.054759 0
0.863107 -0.056332 0
1.000000 0.000007 0
0.996203 -0.014192 0
0.984203 -0.029618 0
0.961797 -0.047785 0
0.924371 -0.070829 0
0.862651 -0.101934 0
0.756818 -0.144697 0
0.563405 -0.217478 0
0.072839 -0.000168 0
-0.533637 0.133907 0
0.000000 0.000070 0
-0.032014 -0.053676 0
-0.057224 -0.120745 0
-0.033727 -0.117315 0
-0.010388 -0.040979 0
0.014758 0.063934 0
0.024207 0.151273 0
0.014756 0.219841 0
-0.009030 0.261513 0
-0.035253 0.263698 0
-0.046163 0.217178 0
-0.022437 0.125485 0
0.026567 0.012428 0
0.080596 -0.093902 0
0.130956 -0.181840 0
0.176938 -0.246721 0
0.222555 -0.281011 0
0.274477 -0.278525 0
0.338332 -0.238400 0
0.415528 -0.167403 0
0.501585 -0.078719 0
0.581042 0.008005 0
0.641576 0.079703 0
0.682843 0.137818 0
0.705734 0.185821 0
0.710429 0.225147 0
0.697330 0.256974 0
0.668415 0.281667 0
0.629056 0.297059 0
0.588924 0.297274 0
0.559759 0.274696 0
0.550050 0.225222 0
0.560852 0.152385 0
0.586548 0.066242 0
0.618112 -0.020179 0
0.646489 -0.097035 0
0.667963 -0.161297 0
0.681468 -0.212993 0
0.688035 -0.251827 0
0.690811 -0.276152 0
0.694631 -0.282765 0
0.704613 -0.268111 0
0.724045 -0.230737 0
0.752965 -0.173360 0
0.788498 -0.102776 0
0.826299 -0.028213 0
0.860236 0.040484 0
0.886407 0.097568 0
0.903412 0.142372 0
0.910592 0.175896 0
0.907727 0.199949 0
0.895276 0.216390 0
0.874966 0.226045 0
0.850306 0.227683 0