# vtk DataFile Version 2.0
generated by CFD-lab course output (written by Tobias Neckel) 
ASCII

DATASET STRUCTURED_GRID
DIMENSIONS  101 21 1 
POINTS 2121 float

0.000000 0.000000 0
0.100000 0.000000 0
0.200000 0.000000 0
0.300000 0.000000 0
0.400000 0.000000 0
0.500000 0.000000 0
0.600000 0.000000 0
0.700000 0.000000 0
0.800000 0.000000 0
0.900000 0.000000 0
1.000000 0.000000 0
1.100000 0.000000 0
1.200000 0.000000 0
1.300000 0.000000 0
1.400000 0.000000 0
1.500000 0.000000 0
1.600000 0.000000 0
1.700000 0.000000 0
1.800000 0.000000 0
1.900000 0.000000 0
2.000000 0.000000 0
2.100000 0.000000 0
2.200000 0.000000 0
2.300000 0.000000 0
2.400000 0.000000 0
2.500000 0.000000 0
2.600000 0.000000 0
2.700000 0.000000 0
2.800000 0.000000 0
2.900000 0.000000 0
3.000000 0.000000 0
3.100000 0.000000 0
3.200000 0.000000 0
3.300000 0.000000 0
3.400000 0.000000 0
3.500000 0.000000 0
3.600000 0.000000 0
3.700000 0.000000 0
3.800000 0.000000 0
3.900000 0.000000 0
4.000000 0.000000 0
4.100000 0.000000 0
4.200000 0.000000 0
4.300000 0.000000 0
4.400000 0.000000 0
4.500000 0.000000 0
4.600000 0.000000 0
4.700000 0.000000 0
4.800000 0.000000 0
4.900000 0.000000 0
5.000000 0.000000 0
5.100000 0.000000 0
5.200000 0.000000 0
5.300000 0.000000 0
5.400000 0.000000 0
5.500000 0.000000 0
5.600000 0.000000 0
5.700000 0.000000 0
5.800000 0.000000 0
5.900000 0.000000 0
6.000000 0.000000 0
6.100000 0.000000 0
6.200000 0.000000 0
6.300000 0.000000 0
6.400000 0.000000 0
6.500000 0.000000 0
6.600000 0.000000 0
6.700000 0.000000 0
6.800000 0.000000 0
6.900000 0.000000 0
7.000000 0.000000 0
7.100000 0.000000 0
7.200000 0.000000 0
7.300000 0.000000 0
7.400000 0.000000 0
7.500000 0.000000 0
7.600000 0.000000 0
7.700000 0.000000 0
7.800000 0.000000 0
7.900000 0.000000 0
8.000000 0.000000 0
8.100000 0.000000 0
8.200000 0.000000 0
8.300000 0.000000 0
8.400000 0.000000 0
8.500000 0.000000 0
8.600000 0.000000 0
8.700000 0.000000 0
8.800000 0.000000 0
8.900000 0.000000 0
9.000000 0.000000 0
9.100000 0.000000 0
9.200000 0.000000 0
9.300000 0.000000 0
9.400000 0.000000 0
9.500000 0.000000 0
9.600000 0.000000 0
9.700000 0.000000 0
9.800000 0.000000 0
9.900000 0.000000 0
10.000000 0.000000 0
0.000000 0.100000 0
0.100000 0.100000 0
0.200000 0.100000 0
0.300000 0.100000 0
0.400000 0.100000 0
0.500000 0.100000 0
0.600000 0.100000 0
0.700000 0.100000 0
0.800000 0.100000 0
0.900000 0.100000 0
1.000000 0.100000 0
1.100000 0.100000 0
1.200000 0.100000 0
1.300000 0.100000 0
1.400000 0.100000 0
1.500000 0.100000 0
1.600000 0.100000 0
1.700000 0.100000 0
1.800000 0.100000 0
1.900000 0.100000 0
2.000000 0.100000 0
2.100000 0.100000 0
2.200000 0.100000 0
2.300000 0.100000 0
2.400000 0.100000 0
2.500000 0.100000 0
2.600000 0.100000 0
2.700000 0.100000 0
2.800000 0.100000 0
2.900000 0.100000 0
3.000000 0.100000 0
3.100000 0.100000 0
3.200000 0.100000 0
3.300000 0.100000 0
3.400000 0.100000 0
3.500000 0.100000 0
3.600000 0.100000 0
3.700000 0.100000 0
3.800000 0.100000 0
3.900000 0.100000 0
4.000000 0.100000 0
4.100000 0.100000 0
4.200000 0.100000 0
4.300000 0.100000 0
4.400000 0.100000 0
4.500000 0.100000 0
4.600000 0.100000 0
4.700000 0.100000 0
4.800000 0.100000 0
4.900000 0.100000 0
5.000000 0.100000 0
5.100000 0.100000 0
5.200000 0.100000 0
5.300000 0.100000 0
5.400000 0.100000 0
5.500000 0.100000 0
5.600000 0.100000 0
5.700000 0.100000 0
5.800000 0.100000 0
5.900000 0.100000 0
6.000000 0.100000 0
6.100000 0.100000 0
6.200000 0.100000 0
6.300000 0.100000 0
6.400000 0.100000 0
6.500000 0.100000 0
6.600000 0.100000 0
6.700000 0.100000 0
6.800000 0.100000 0
6.900000 0.100000 0
7.000000 0.100000 0
7.100000 0.100000 0
7.200000 0.100000 0
7.300000 0.100000 0
7.400000 0.100000 0
7.500000 0.100000 0
7.600000 0.100000 0
7.700000 0.100000 0
7.800000 0.100000 0
7.900000 0.100000 0
8.000000 0.100000 0
8.100000 0.100000 0
8.200000 0.100000 0
8.300000 0.100000 0
8.400000 0.100000 0
8.500000 0.100000 0
8.600000 0.100000 0
8.700000 0.100000 0
8.800000 0.100000 0
8.900000 0.100000 0
9.000000 0.100000 0
9.100000 0.100000 0
9.200000 0.100000 0
9.300000 0.100000 0
9.400000 0.100000 0
9.500000 0.100000 0
9.600000 0.100000 0
9.700000 0.100000 0
9.800000 0.100000 0
9.900000 0.100000 0
10.000000 0.100000 0
0.000000 0.200000 0
0.100000 0.200000 0
0.200000 0.200000 0
0.300000 0.200000 0
0.400000 0.200000 0
0.500000 0.200000 0
0.600000 0.200000 0
0.700000 0.200000 0
0.800000 0.200000 0
0.900000 0.200000 0
1.000000 0.200000 0
1.100000 0.200000 0
1.200000 0.200000 0
1.300000 0.200000 0
1.400000 0.200000 0
1.500000 0.200000 0
1.600000 0.200000 0
1.700000 0.200000 0
1.800000 0.200000 0
1.900000 0.200000 0
2.000000 0.200000 0
2.100000 0.200000 0
2.200000 0.200000 0
2.300000 0.200000 0
2.400000 0.200000 0
2.500000 0.200000 0
2.600000 0.200000 0
2.700000 0.200000 0
2.800000 0.200000 0
2.900000 0.200000 0
3.000000 0.200000 0
3.100000 0.200000 0
3.200000 0.200000 0
3.300000 0.200000 0
3.400000 0.200000 0
3.500000 0.200000 0
3.600000 0.200000 0
3.700000 0.200000 0
3.800000 0.200000 0
3.900000 0.200000 0
4.000000 0.200000 0
4.100000 0.200000 0
4.200000 0.200000 0
4.300000 0.200000 0
4.400000 0.200000 0
4.500000 0.200000 0
4.600000 0.200000 0
4.700000 0.200000 0
4.800000 0.200000 0
4.900000 0.200000 0
5.000000 0.200000 0
5.100000 0.200000 0
5.200000 0.200000 0
5.300000 0.200000 0
5.400000 0.200000 0
5.500000 0.200000 0
5.600000 0.200000 0
5.700000 0.200000 0
5.800000 0.200000 0
5.900000 0.200000 0
6.000000 0.200000 0
6.100000 0.200000 0
6.200000 0.200000 0
6.300000 0.200000 0
6.400000 0.200000 0
6.500000 0.200000 0
6.600000 0.200000 0
6.700000 0.200000 0
6.800000 0.200000 0
6.900000 0.200000 0
7.000000 0.200000 0
7.100000 0.200000 0
7.200000 0.200000 0
7.300000 0.200000 0
7.400000 0.200000 0
7.500000 0.200000 0
7.600000 0.200000 0
7.700000 0.200000 0
7.800000 0.200000 0
7.900000 0.200000 0
8.000000 0.200000 0
8.100000 0.200000 0
8.200000 0.200000 0
8.300000 0.200000 0
8.400000 0.200000 0
8.500000 0.200000 0
8.600000 0.200000 0
8.700000 0.200000 0
8.800000 0.200000 0
8.900000 0.200000 0
9.000000 0.200000 0
9.100000 0.200000 0
9.200000 0.200000 0
9.300000 0.200000 0
9.400000 0.200000 0
9.500000 0.200000 0
9.600000 0.200000 0
9.700000 0.200000 0
9.800000 0.200000 0
9.900000 0.200000 0
10.000000 0.200000 0
0.000000 0.300000 0
0.100000 0.300000 0
0.200000 0.300000 0
0.300000 0.300000 0
0.400000 0.300000 0
0.500000 0.300000 0
0.600000 0.300000 0
0.700000 0.300000 0
0.800000 0.300000 0
0.900000 0.300000 0
1.000000 0.300000 0
1.100000 0.300000 0
1.200000 0.300000 0
1.300000 0.300000 0
1.400000 0.300000 0
1.500000 0.300000 0
1.600000 0.300000 0
1.700000 0.300000 0
1.800000 0.300000 0
1.900000 0.300000 0
2.000000 0.300000 0
2.100000 0.300000 0
2.200000 0.300000 0
2.300000 0.300000 0
2.400000 0.300000 0
2.500000 0.300000 0
2.600000 0.300000 0
2.700000 0.300000 0
2.800000 0.300000 0
2.900000 0.300000 0
3.000000 0.300000 0
3.100000 0.300000 0
3.200000 0.300000 0
3.300000 0.300000 0
3.400000 0.300000 0
3.500000 0.300000 0
3.600000 0.300000 0
3.700000 0.300000 0
3.800000 0.300000 0
3.900000 0.300000 0
4.000000 0.300000 0
4.100000 0.300000 0
4.200000 0.300000 0
4.300000 0.300000 0
4.400000 0.300000 0
4.500000 0.300000 0
4.600000 0.300000 0
4.700000 0.300000 0
4.800000 0.300000 0
4.900000 0.300000 0
5.000000 0.300000 0
5.100000 0.300000 0
5.200000 0.300000 0
5.300000 0.300000 0
5.400000 0.300000 0
5.500000 0.300000 0
5.600000 0.300000 0
5.700000 0.300000 0
5.800000 0.300000 0
5.900000 0.300000 0
6.000000 0.300000 0
6.100000 0.300000 0
6.200000 0.300000 0
6.300000 0.300000 0
6.400000 0.300000 0
6.500000 0.300000 0
6.600000 0.300000 0
6.700000 0.300000 0
6.800000 0.300000 0
6.900000 0.300000 0
7.000000 0.300000 0
7.100000 0.300000 0
7.200000 0.300000 0
7.300000 0.300000 0
7.400000 0.300000 0
7.500000 0.300000 0
7.600000 0.300000 0
7.700000 0.300000 0
7.800000 0.300000 0
7.900000 0.300000 0
8.000000 0.300000 0
8.100000 0.300000 0
8.200000 0.300000 0
8.300000 0.300000 0
8.400000 0.300000 0
8.500000 0.300000 0
8.600000 0.300000 0
8.700000 0.300000 0
8.800000 0.300000 0
8.900000 0.300000 0
9.000000 0.300000 0
9.100000 0.300000 0
9.200000 0.300000 0
9.300000 0.300000 0
9.400000 0.300000 0
9.500000 0.300000 0
9.600000 0.300000 0
9.700000 0.300000 0
9.800000 0.300000 0
9.900000 0.300000 0
10.000000 0.300000 0
0.000000 0.400000 0
0.100000 0.400000 0
0.200000 0.400000 0
0.300000 0.400000 0
0.400000 0.400000 0
0.500000 0.400000 0
0.600000 0.400000 0
0.700000 0.400000 0
0.800000 0.400000 0
0.900000 0.400000 0
1.000000 0.400000 0
1.100000 0.400000 0
1.200000 0.400000 0
1.300000 0.400000 0
1.400000 0.400000 0
1.500000 0.400000 0
1.600000 0.400000 0
1.700000 0.400000 0
1.800000 0.400000 0
1.900000 0.400000 0
2.000000 0.400000 0
2.100000 0.400000 0
2.200000 0.400000 0
2.300000 0.400000 0
2.400000 0.400000 0
2.500000 0.400000 0
2.600000 0.400000 0
2.700000 0.400000 0
2.800000 0.400000 0
2.900000 0.400000 0
3.000000 0.400000 0
3.100000 0.400000 0
3.200000 0.400000 0
3.300000 0.400000 0
3.400000 0.400000 0
3.500000 0.400000 0
3.600000 0.400000 0
3.700000 0.400000 0
3.800000 0.400000 0
3.900000 0.400000 0
4.000000 0.400000 0
4.100000 0.400000 0
4.200000 0.400000 0
4.300000 0.400000 0
4.400000 0.400000 0
4.500000 0.400000 0
4.600000 0.400000 0
4.700000 0.400000 0
4.800000 0.400000 0
4.900000 0.400000 0
5.000000 0.400000 0
5.100000 0.400000 0
5.200000 0.400000 0
5.300000 0.400000 0
5.400000 0.400000 0
5.500000 0.400000 0
5.600000 0.400000 0
5.700000 0.400000 0
5.800000 0.400000 0
5.900000 0.400000 0
6.000000 0.400000 0
6.100000 0.400000 0
6.200000 0.400000 0
6.300000 0.400000 0
6.400000 0.400000 0
6.500000 0.400000 0
6.600000 0.400000 0
6.700000 0.400000 0
6.800000 0.400000 0
6.900000 0.400000 0
7.000000 0.400000 0
7.100000 0.400000 0
7.200000 0.400000 0
7.300000 0.400000 0
7.400000 0.400000 0
7.500000 0.400000 0
7.600000 0.400000 0
7.700000 0.400000 0
7.800000 0.400000 0
7.900000 0.400000 0
8.000000 0.400000 0
8.100000 0.400000 0
8.200000 0.400000 0
8.300000 0.400000 0
8.400000 0.400000 0
8.500000 0.400000 0
8.600000 0.400000 0
[...]
POINT_DATA 2121 

VECTORS velocity float
0.500000 0.000000 0
0.000003 0.000000 0
0.000013 0.000000 0
0.000028 0.000000 0
0.000049 0.000000 0
0.000076 0.000000 0
0.000105 0.000000 0
0.000133 0.000000 0
0.000155 0.000000 0
0.000165 0.000000 0
0.000153 0.000000 0
0.000112 0.000000 0
0.000034 0.000000 0
-0.000092 0.000000 0
-0.000262 0.000000 0
-0.000481 0.000000 0
-0.000737 0.000000 0
-0.001009 0.000000 0
-0.001262 0.000000 0
-0.001442 0.000000 0
-0.001489 0.000000 0
-0.001354 0.000000 0
-0.001010 0.000000 0
-0.000494 0.000000 0
0.000136 0.000000 0
0.000802 0.000000 0
0.001438 0.000000 0
0.001992 0.000000 0
0.002424 0.000000 0
0.002711 0.000000 0
0.002837 0.000000 0
0.002791 0.000000 0
0.002568 0.000000 0
0.002166 0.000000 0
0.001585 0.000000 0
0.000825 0.000000 0
-0.000123 0.000000 0
-0.001256 0.000000 0
-0.002473 0.000000 0
-0.003660 0.000000 0
-0.004669 0.000000 0
-0.005326 0.000000 0
-0.005471 0.000000 0
-0.005008 0.000000 0
-0.003961 0.000000 0
-0.002495 0.000000 0
-0.000883 0.000000 0
0.000660 0.000000 0
0.002052 0.000000 0
0.003212 0.000000 0
0.004095 0.000000 0
0.004688 0.000000 0
0.004997 0.000000 0
0.005041 0.000000 0
0.004843 0.000000 0
0.004417 0.000000 0
0.003773 0.000000 0
0.002913 0.000000 0
0.001843 0.000000 0
0.000595 0.000000 0
-0.000724 0.000000 0
-0.001949 0.000000 0
-0.003046 0.000000 0
-0.004009 0.000000 0
-0.004828 0.000000 0
-0.005475 0.000000 0
-0.005894 0.000000 0
-0.005996 0.000000 0
-0.005673 0.000000 0
-0.004840 0.000000 0
-0.003504 0.000000 0
-0.001821 0.000000 0
-0.000048 0.000000 0
0.001678 0.000000 0
0.003265 0.000000 0
0.004609 0.000000 0
0.005615 0.000000 0
0.006203 0.000000 0
0.006317 0.000000 0
0.005931 0.000000 0
0.005065 0.000000 0
0.003798 0.000000 0
0.002267 0.000000 0
0.000663 0.000000 0
-0.000772 0.000000 0
-0.001859 0.000000 0
-0.002661 0.000000 0
-0.003269 0.000000 0
-0.003761 0.000000 0
-0.004195 0.000000 0
-0.004600 0.000000 0
-0.004978 0.000000 0
-0.005296 0.000000 0
-0.005494 0.000000 0
-0.005498 0.000000 0
-0.005244 0.000000 0
-0.004712 0.000000 0
-0.003952 0.000000 0
-0.003091 0.000000 0
-0.002288 0.000000 0
-0.001691 0.000000 0
1.000000 -0.000003 0
1.002680 -0.004788 0
1.010890 -0.010345 0
1.024994 -0.016338 0
1.045366 -0.022547 0
1.072210 -0.028583 0
1.105242 -0.033770 0
1.143287 -0.037186 0
1.183982 -0.037907 0
1.223705 -0.035619 0
1.259178 -0.030921 0
1.288434 -0.024873 0
1.310813 -0.018502 0
1.326602 -0.012590 0
1.336710 -0.007658 0
1.342413 -0.003998 0
1.345165 -0.001696 0
1.346404 -0.000646 0
1.347368 -0.000535 0
1.348883 -0.000852 0
1.351123 -0.000957 0
1.353469 -0.000237 0
1.354645 0.001697 0
1.353134 0.004866 0
1.347675 0.008962 0
1.337520 0.013508 0
1.322501 0.018011 0
1.302951 0.022050 0
1.279573 0.025315 0
1.253317 0.027594 0
1.225285 0.028754 0
1.196669 0.028715 0
1.168712 0.027436 0
1.142674 0.024900 0
1.119816 0.021104 0
1.101375 0.016024 0
1.088548 0.009606 0
1.082455 0.001909 0
1.084055 -0.006584 0
1.093977 -0.015050 0
1.112169 -0.022532 0
1.137537 -0.027937 0
1.167788 -0.030236 0
1.199574 -0.028771 0
1.228932 -0.023565 0
1.252021 -0.015476 0
1.266013 -0.005992 0
1.269727 0.003547 0
1.263526 0.012367 0
1.248558 0.019967 0
1.226402 0.026007 0
1.198847 0.030329 0
1.167726 0.032916 0
1.134814 0.033827 0
1.101780 0.033149 0
1.070180 0.030954 0
1.041462 0.027273 0
1.016949 0.022114 0
0.997779 0.015515 0
0.984792 0.007695 0
0.978450 -0.000646 0
0.978869 -0.008590 0
0.985833 -0.015649 0
0.998918 -0.021709 0
1.017548 -0.026709 0
1.041024 -0.030523 0
1.068498 -0.032897 0
1.098850 -0.033410 0
1.130494 -0.031534 0
1.161236 -0.026844 0
1.188329 -0.019360 0
1.208788 -0.009846 0
1.219997 0.000458 0
1.220566 0.010595 0
1.210781 0.019987 0
1.191734 0.028080 0
1.165076 0.034330 0
1.132920 0.038263 0
1.097733 0.039506 0
1.062174 0.037842 0
1.028882 0.033299 0
1.000174 0.026246 0
0.977717 0.017437 0
0.962290 0.007993 0
0.953792 -0.000649 0
0.951556 -0.007429 0
0.954538 -0.012305 0
0.961618 -0.015759 0
0.971919 -0.018268 0
0.984859 -0.020196 0
1.000123 -0.021754 0
1.017559 -0.022984 0
1.037010 -0.023743 0
1.058125 -0.023737 0
1.080217 -0.022603 0
1.102213 -0.020056 0
1.122739 -0.016074 0
1.140339 -0.011093 0
1.153841 -0.006033 0
1.162785 -0.004114 0
1.169654 -0.004008 0
1.000000 -0.000006 0
1.003001 -0.010869 0
1.011684 -0.022307 0
1.026367 -0.034474 0
1.047649 -0.047218 0
1.076167 -0.059880 0
1.112189 -0.071084 0
1.154923 -0.078750 0
1.201915 -0.080431 0
1.247352 -0.075210 0
1.286614 -0.064745 0
1.317735 -0.051652 0
1.340567 -0.038181 0
1.355896 -0.025902 0
1.365006 -0.015810 0
1.369487 -0.008450 0
1.371053 -0.003981 0
1.371414 -0.002193 0
1.372114 -0.002471 0
1.374301 -0.003750 0
1.378347 -0.004584 0
1.383464 -0.003517 0
1.387783 0.000341 0
1.389154 0.006974 0
1.385944 0.015618 0
1.377315 0.025177 0
1.363198 0.034570 0
1.344099 0.042926 0
1.320883 0.049631 0
1.294612 0.054284 0
1.266452 0.056642 0
1.237620 0.056566 0
1.209356 0.053986 0
1.182896 0.048886 0
1.159448 0.041290 0
1.140158 0.031259 0
1.126088 0.018911 0
1.118196 0.004487 0
1.117442 -0.011524 0
1.124794 -0.028112 0
1.140668 -0.043555 0
1.164513 -0.055612 0
1.194689 -0.062029 0
1.228519 -0.061133 0
1.262341 -0.052437 0
1.291797 -0.037075 0
1.312659 -0.017701 0
1.322191 0.002492 0
1.320367 0.021173 0
1.308732 0.037127 0
1.289209 0.049714 0
1.263841 0.058678 0
1.234612 0.064034 0
1.203357 0.065946 0
1.171721 0.064633 0
1.141151 0.060317 0
1.112884 0.053231 0
1.087903 0.043683 0
1.066882 0.032155 0
1.050153 0.019327 0
1.037803 0.005921 0
1.030042 -0.007385 0
1.027150 -0.020049 0
1.029224 -0.031714 0
1.036262 -0.042105 0
1.048273 -0.050947 0
1.065328 -0.057821 0
1.087379 -0.061989 0
1.113911 -0.062379 0
1.143644 -0.057829 0
1.174403 -0.047545 0
1.203144 -0.031662 0
1.226204 -0.011773 0
1.240206 0.009220 0
1.243696 0.028835 0
1.237426 0.045709 0
1.222844 0.058816 0
1.201823 0.067344 0
1.176479 0.070746 0
1.148972 0.068850 0
1.121281 0.061998 0
1.095013 0.051160 0
1.071265 0.037877 0
1.050640 0.023917 0
1.033434 0.010722 0
1.019999 -0.000760 0
1.010515 -0.010080 0
1.004758 -0.017402 0
1.002364 -0.023264 0
1.003139 -0.028229 0
1.007141 -0.032727 0
1.014627 -0.036915 0
1.025849 -0.040596 0
1.040815 -0.043238 0
1.059126 -0.044120 0
1.079951 -0.042555 0
1.102078 -0.038159 0
1.124010 -0.031135 0
1.144094 -0.022480 0
1.160779 -0.015847 0
1.171584 -0.012595 0
1.000000 -0.000008 0
1.002601 -0.016465 0
1.010475 -0.033715 0
1.024228 -0.052308 0
1.044960 -0.072353 0
1.074167 -0.093129 0
1.113343 -0.112531 0
1.162836 -0.126917 0
1.221155 -0.130343 0
1.275651 -0.120325 0
1.319178 -0.101310 0
1.350834 -0.078830 0
1.371965 -0.056659 0
1.384299 -0.037022 0
1.389686 -0.021241 0
1.390134 -0.010036 0
1.387718 -0.003618 0
1.384516 -0.001704 0
1.382567 -0.003424 0
1.383695 -0.007090 0
1.388880 -0.010119 0
1.397252 -0.009669 0
1.405859 -0.003993 0
1.410969 0.006705 0
1.410131 0.020801 0
1.402444 0.036253 0
1.388127 0.051224 0
1.368061 0.064362 0
1.343414 0.074799 0
1.315436 0.082022 0
1.285385 0.085742 0
1.254506 0.085806 0
1.224032 0.082155 0
1.195167 0.074805 0
1.169066 0.063838 0
1.146806 0.049381 0
1.129366 0.031569 0
1.117616 0.010557 0
1.112378 -0.013178 0
1.114502 -0.038270 0
1.124488 -0.062245 0
1.142257 -0.081952 0
1.167317 -0.094236 0
1.198696 -0.096419 0
1.234294 -0.086842 0
1.270270 -0.065795 0
1.301213 -0.036387 0
1.321568 -0.004160 0
1.328383 0.025826 0
1.323126 0.051125 0
1.308262 0.070898 0
1.286292 0.084926 0
1.259515 0.093399 0
1.229940 0.096718 0
1.199249 0.095355 0
1.168804 0.089790 0
1.139671 0.080521 0
1.112647 0.068115 0
1.088294 0.053263 0
1.066980 0.036773 0
1.048875 0.019465 0
1.033888 0.002064 0
1.021819 -0.014830 0
1.012660 -0.030819 0
1.006965 -0.045755 0
1.005810 -0.059586 0
1.010602 -0.071999 0
1.022499 -0.081989 0
1.041762 -0.087796 0
1.067535 -0.087334 0
1.097975 -0.078858 0
1.130487 -0.061646 0
1.161882 -0.036604 0
1.188426 -0.006897 0
1.206421 0.022768 0
1.214684 0.048932 0
1.214008 0.069934 0
1.205698 0.084627 0
1.191319 0.092356 0
1.172474 0.093039 0
1.150652 0.087256 0
1.127156 0.076260 0
1.103131 0.061806 0
1.079619 0.045818 0
1.057504 0.029986 0
1.037320 0.015483 0
1.019355 0.002929 0
1.003760 -0.007616 0
0.990724 -0.016657 0
0.980775 -0.024982 0
0.974779 -0.033252 0
0.973615 -0.041701 0
0.977855 -0.049939 0
0.987505 -0.057022 0
1.001985 -0.061748 0
1.020270 -0.063016 0
1.041060 -0.060141 0
1.062895 -0.053117 0
1.084179 -0.042809 0
1.103201 -0.031612 0
1.115909 -0.024764 0
1.000000 -0.000011 0
1.002071 -0.021341 0
1.008489 -0.043938 0
1.020148 -0.068963 0
1.038773 -0.097162 0
1.067115 -0.128269 0
1.108925 -0.159759 0
1.167486 -0.186568 0
1.246908 -0.193253 0
1.313359 -0.173240 0
1.358269 -0.139932 0
1.386238 -0.104437 0
1.401976 -0.071639 0
1.408288 -0.043616 0
1.407323 -0.021639 0
1.401293 -0.006476 0
1.392300 0.001639 0
1.382864 0.002956 0
1.375562 -0.001655 0
1.372975 -0.010064 0
1.377708 -0.018137 0
1.389732 -0.020494 0
1.405018 -0.013376 0
1.416927 0.002701 0
1.420419 0.024142 0
1.414662 0.047179 0
1.400553 0.068950 0
1.379658 0.087637 0
1.353590 0.102252 0
1.323811 0.112309 0
1.291646 0.117568 0
1.258359 0.117915 0
1.225185 0.113322 0
1.193335 0.103849 0
1.163960 0.089648 0
1.138106 0.070958 0
1.116576 0.048103 0
1.099658 0.021478 0
1.086867 -0.008405 0
1.077694 -0.040217 0
1.073104 -0.071304 0
1.074649 -0.098436 0
1.084591 -0.118464 0
1.105010 -0.128109 0
1.136157 -0.124012 0
1.175532 -0.103994 0
1.217803 -0.068998 0
1.255425 -0.024678 0
1.280606 0.019615 0
1.290447 0.057247 0
1.287548 0.086548 0
1.274803 0.107425 0
1.254882 0.120385 0
1.230117 0.126213 0
1.202456 0.125770 0
1.173468 0.119894 0
1.144381 0.109387 0
1.116121 0.095059 0
1.089325 0.077822 0
1.064277 0.058745 0
1.040783 0.039013 0
1.018189 0.019673 0
0.995822 0.001181 0
0.973850 -0.016858 0
0.954064 -0.035252 0
0.939827 -0.054580 0
0.934277 -0.074505 0
0.938939 -0.093146 0
0.953507 -0.107413 0
0.976472 -0.114039 0
1.005759 -0.110496 0
1.039066 -0.095568 0
1.073931 -0.069711 0
1.107591 -0.035319 0
1.136545 0.002578 0
1.157260 0.038123 0
1.169092 0.067802 0
1.172618 0.090033 0
1.168806 0.103970 0
1.158791 0.109516 0
1.143739 0.107315 0
1.124800 0.098679 0
1.103100 0.085410 0
1.079698 0.069539 0
1.055471 0.053016 0
1.031042 0.037382 0
1.006887 0.023474 0
0.983701 0.011223 0
0.962632 -0.000285 0
0.945178 -0.012290 0
0.932939 -0.025573 0
0.927149 -0.039997 0
0.928175 -0.054492 0
0.935521 -0.067374 0
0.948129 -0.076891 0
0.964687 -0.081635 0
0.983808 -0.080788 0
1.004081 -0.074260 0
1.024006 -0.062792 0
1.041935 -0.047581 0
1.054390 -0.037663 0
1.000000 -0.000014 0
1.001239 -0.024953 0
1.005188 -0.051796 0
1.012848 -0.082596 0
1.026377 -0.119325 0
1.049833 -0.163287 0
1.090265 -0.212908 0
1.157364 -0.264907 0
1.273701 -0.276222 0
1.346268 -0.231691 0
1.378854 -0.174189 0
1.392628 -0.122531 0
1.396842 -0.078703 0
1.393639 -0.042362 0
1.384169 -0.014241 0
1.368887 0.004989 0
1.350123 0.014810 0
1.331040 0.015030 0
1.314816 0.006463 0
1.304161 -0.009233 0
1.302938 -0.026873 0
1.314526 -0.036980 0
1.336398 -0.031188 0
1.360057 -0.008696 0
1.374180 0.023063 0
1.375213 0.056115 0
1.365627 0.086225 0
1.348110 0.111322 0
1.324709 0.130643 0
1.296897 0.143963 0
1.265877 0.151190 0
1.232796 0.152264 0
1.198830 0.147176 0
1.165162 0.136027 0
1.132881 0.119067 0
1.102859 0.096767 0
1.075526 0.070019 0
1.050320 0.040270 0
1.025082 0.008791 0
0.997155 -0.024502 0
0.967714 -0.059195 0
0.944582 -0.093435 0
0.935674 -0.124595 0
0.944545 -0.147985 0
0.970605 -0.157365 0
1.010762 -0.147440 0
1.060290 -0.116278 0
1.112864 -0.066964 0
1.160244 -0.009196 0
1.193580 0.044184 0
1.211240 0.086542 0
1.215877 0.117592 0
1.210103 0.138085 0
1.196344 0.149144 0
1.176744 0.152003 0
1.153140 0.147864 0
1.127039 0.137868 0
1.099571 0.123171 0
1.071331 0.105106 0
1.042166 0.085315 0
1.011221 0.065554 0
0.977748 0.047027 0
0.942494 0.029511 0
0.908483 0.010941 0
0.880170 -0.011728 0
0.861682 -0.039795 0
0.855226 -0.071107 0
0.860263 -0.101215 0
0.874860 -0.125326 0
0.896924 -0.139584 0
0.924620 -0.141452 0
0.956307 -0.129818 0
0.990358 -0.105128 0
1.025009 -0.069509 0
1.058142 -0.026900 0
1.086427 0.016386 0
1.107113 0.054576 0
1.119828 0.084914 0
1.124839 0.106183 0
1.122759 0.118105 0
1.114373 0.121245 0
1.100534 0.116896 0
1.082091 0.106905 0
1.059805 0.093444 0
1.034360 0.078637 0
1.006539 0.064063 0
0.977561 0.050266 0
0.949340 0.036635 0
0.924301 0.021861 0
0.904720 0.004708 0
0.892053 -0.015226 0
0.886737 -0.036940 0
0.888266 -0.058315 0
0.895539 -0.076979 0
0.907270 -0.090917 0
0.922214 -0.098699 0
0.939190 -0.099537 0
0.957019 -0.093318 0
0.974423 -0.080666 0
0.989954 -0.061998 0
1.001035 -0.049639 0
1.000000 -0.000017 0
1.000049 -0.026530 0
1.000328 -0.055551 0
1.001540 -0.090158 0
1.005516 -0.134153 0
1.016548 -0.192162 0
1.044386 -0.267295 0
1.108935 -0.370010 0
1.275278 -0.382162 0
1.324425 -0.278395 0
1.313223 -0.186289 0
1.297344 -0.122420 0
1.284850 -0.072645 0
1.271933 -0.030938 0
1.252692 0.003116 0
1.225871 0.027569 0
1.194013 0.039482 0
1.160979 0.038261 0
1.130829 0.025226 0
1.106828 0.001816 0
1.091465 -0.028501 0
1.092016 -0.053955 0
1.113877 -0.058909 0
1.152413 -0.035082 0
1.192733 0.008983 0
1.217731 0.055729 0
1.227071 0.096051 0
1.226006 0.128552 0
1.217009 0.153461 0
1.201300 0.171138 0
1.179804 0.181667 0
1.153542 0.184958 0
1.123699 0.180954 0
1.091415 0.169798 0
1.057226 0.151952 0
1.020188 0.128315 0
0.977730 0.100646 0
0.927877 0.071927 0
0.873025 0.044764 0
0.820625 0.017155 0
0.779163 -0.018727 0
0.755491 -0.066394 0
0.751725 -0.118427 0
0.765752 -0.163041 0
0.794622 -0.190228 0
0.835762 -0.193678 0
0.886591 -0.171100 0
0.943809 -0.124631 0
1.002712 -0.061101 0
1.055559 0.006251 0
1.094141 0.064251 0
1.118172 0.108561 0
1.129541 0.139918 0
1.130212 0.159572 0
1.122103 0.168973 0
1.106960 0.169598 0
1.086209 0.162955 0
1.060715 0.150767 0
1.030550 0.135227 0
0.995137 0.118856 0
0.954261 0.103432 0
0.909732 0.088402 0
0.866271 0.070448 0
0.830236 0.045469 0
0.806559 0.011553 0
0.796336 -0.029633 0
0.797510 -0.073083 0
0.807040 -0.112777 0
0.822562 -0.144072 0
0.842725 -0.163798 0
0.866819 -0.169878 0
0.894285 -0.161306 0
0.924365 -0.138413 0
0.955976 -0.103102 0
0.987716 -0.058838 0
1.017688 -0.010847 0
1.042652 0.034402 0
1.060906 0.072307 0
1.071999 0.101038 0
1.075950 0.119982 0
1.073051 0.129538 0
1.063712 0.130959 0
1.048377 0.126137 0
1.027541 0.117267 0
1.001954 0.106280 0
0.972972 0.094180 0
0.942808 0.080671 0
0.914372 0.064481 0
0.890591 0.044334 0
0.873577 0.019957 0
0.864029 -0.007591 0
0.861321 -0.036212 0
0.864212 -0.063294 0
0.871395 -0.086379 0
0.881751 -0.103567 0
0.894364 -0.113555 0
0.908419 -0.115593 0
0.923076 -0.109493 0
0.937348 -0.095727 0
0.950048 -0.074193 0
0.959228 -0.059931 0
1.000000 -0.000020 0
0.998601 -0.025285 0
0.994295 -0.053292 0
0.986924 -0.087790 0
0.976628 -0.134339 0
0.964939 -0.202163 0
0.958303 -0.305301 0
0.979148 -0.495804 0
1.141219 -0.491716 0
1.129694 -0.269634 0
1.028464 -0.147103 0
0.974859 -0.094154 0
0.950079 -0.053287 0
0.934510 -0.010201 0
0.906924 0.031821 0
0.866040 0.063665 0
0.813760 0.079698 0
0.754547 0.078214 0
0.696991 0.060617 0
0.653490 0.030132 0
0.635483 -0.012062 0
0.649105 -0.059393 0
0.691048 -0.091588 0
0.755928 -0.087555 0
0.834923 -0.042258 0
0.910349 0.021775 0
0.964882 0.077948 0
0.999307 0.121381 0
1.019635 0.155345 0
1.027773 0.181165 0
1.024753 0.198945 0
1.011540 0.208366 0
0.988859 0.209302 0
0.956704 0.202500 0
0.913973 0.190295 0
0.859202 0.176265 0
0.793121 0.162334 0
0.721855 0.144980 0
0.657534 0.116048 0
0.613588 0.069364 0
0.596574 0.005942 0
0.601118 -0.065996 0
0.617924 -0.134856 0
0.641649 -0.190883 0
0.671209 -0.227375 0
0.707627 -0.239408 0
0.751890 -0.224325 0
0.803550 -0.183084 0
0.860336 -0.120946 0
0.918247 -0.047246 0
0.969355 0.023929 0
1.007444 0.082192 0
1.032727 0.126044 0
1.046165 0.156581 0
1.048940 0.175254 0
1.042200 0.183757 0
1.026772 0.184112 0
1.002929 0.178829 0
0.970584 0.170685 0
0.930289 0.161605 0
0.884814 0.150961 0
0.839834 0.135020 0
0.802336 0.109010 0
0.777465 0.070656 0
0.766440 0.022176 0
0.766895 -0.030744 0
0.774500 -0.081808 0
0.785976 -0.126264 0
0.799726 -0.161010 0
0.815426 -0.183840 0
0.833442 -0.193011 0
0.854254 -0.187362 0
0.877969 -0.166818 0
0.904089 -0.132860 0
0.931576 -0.088610 0
0.959020 -0.038549 0
0.984259 0.011358 0
1.004622 0.055567 0
1.018958 0.091139 0
1.026707 0.117051 0
1.027649 0.133482 0
1.021764 0.141569 0
1.009221 0.143075 0
0.990539 0.139865 0
0.966889 0.133206 0
0.940327 0.123209 0
0.913677 0.108866 0
0.889925 0.088851 0
0.871399 0.062656 0
0.859233 0.031271 0
0.853361 -0.002969 0
0.852829 -0.037121 0
0.856305 -0.068386 0
0.862613 -0.094516 0
0.870882 -0.113883 0
0.880508 -0.125363 0
0.891028 -0.128247 0
0.901971 -0.122244 0
0.912698 -0.107634 0
0.922334 -0.083875 0
0.929315 -0.068166 0
1.000000 -0.000021 0
0.997189 -0.020832 0
0.988343 -0.043881 0
0.972100 -0.072497 0
0.945796 -0.112174 0
0.904655 -0.173844 0
0.839939 -0.281511 0
0.736213 -0.552931 0
0.552245 -0.532709 0
0.000135 -0.165637 0
0.405053 -0.031451 0
0.338854 -0.044030 0
0.344786 -0.032292 0
0.366011 0.012218 0
0.365134 0.071585 0
0.333022 0.120730 0
0.280833 0.150973 0
0.221088 0.155031 0
0.169731 0.126284 0
0.145490 0.063323 0
0.162601 -0.024118 0
0.211896 -0.109522 0
0.278337 -0.165734 0
0.358242 -0.178960 0
0.451858 -0.145442 0
0.556076 -0.074233 0
0.653205 0.007091 0
0.727162 0.073796 0
0.777976 0.124992 0
0.810187 0.166017 0
0.825163 0.197897 0
0.823462 0.220850 0
0.805019 0.235788 0
0.769491 0.244685 0
0.717717 0.249456 0
0.654495 0.249170 0
0.590580 0.237997 0
0.540147 0.207520 0
0.513673 0.153036 0
0.512549 0.078119 0
0.530035 -0.006255 0
0.554491 -0.087744 0
0.578068 -0.158959 0
0.598905 -0.216325 0
0.618804 -0.256205 0
0.641483 -0.274359 0
0.670829 -0.267023 0
0.709030 -0.233077 0
0.755503 -0.175798 0
0.807242 -0.102768 0
0.859466 -0.024946 0
0.904101 0.045188 0
0.937442 0.101196 0
0.959213 0.143358 0
0.969632 0.172937 0
0.969019 0.191766 0
0.957577 0.202226 0
0.935543 0.206955 0
0.903963 0.207867 0
0.865899 0.204626 0
0.826963 0.193890 0
0.793963 0.170883 0
0.772047 0.132820 0
0.762586 0.081368 0
0.763492 0.022127 0
0.771068 -0.037689 0
0.781558 -0.092162 0
0.792530 -0.138001 0
0.802928 -0.173520 0
0.812869 -0.197513 0
0.823336 -0.208706 0
0.835684 -0.205832 0
0.851005 -0.188246 0
0.869600 -0.156707 0
0.890867 -0.113768 0
0.913550 -0.063529 0
0.936016 -0.011199 0
0.955732 0.037608 0
0.970862 0.078953 0
0.980353 0.111291 0
0.983580 0.134481 0
0.980249 0.149386 0
0.970481 0.157361 0
0.955035 0.159599 0
0.935519 0.156493 0
0.914347 0.147392 0
0.894270 0.131074 0
0.877644 0.106761 0
0.865840 0.075029 0
0.859126 0.037998 0
0.856961 -0.001184 0
0.858368 -0.039152 0
0.862198 -0.073073 0
0.867477 -0.100951 0
0.873528 -0.121457 0
0.879971 -0.133696 0
0.886656 -0.137051 0
0.893500 -0.131157 0
0.900299 -0.116084 0
0.906584 -0.090804 0
0.911120 -0.074085 0
1.000000 -0.000022 0
0.996213 -0.013638 0
0.984242 -0.028210 0
0.961893 -0.045248 0
0.924553 -0.066901 0
0.862968 -0.096313 0
0.757396 -0.136864 0
0.564385 -0.208114 0
0.072575 -0.000494 0
-0.535146 0.129104 0
0.000000 -0.000028 0
-0.030030 -0.044490 0
-0.051178 -0.080441 0
-0.054149 -0.030550 0
-0.055928 0.064808 0
-0.069551 0.147964 0
-0.093990 0.191631 0
-0.115806 0.189316 0
-0.119085 0.136215 0
-0.090392 0.037261 0
-0.038834 -0.078469 0
0.017101 -0.175132 0
0.073522 -0.237937 0
0.134267 -0.261080 0
0.205646 -0.240095 0
0.290889 -0.179575 0
0.386868 -0.093142 0
0.476577 -0.003393 0
0.545059 0.072317 0
0.591475 0.133974 0
0.617557 0.185667 0
0.623690 0.228508 0
0.610445 0.263273 0
0.580363 0.289803 0
0.539959 0.305294 0
0.500363 0.303407 0
0.474365 0.276687 0
0.470502 0.221891 0
0.488826 0.143649 0
0.522133 0.053004 0
0.558907 -0.035999 0
0.589933 -0.114029 0
0.612233 -0.179269 0
0.625614 -0.231617 0
0.632284 -0.269952 0
0.636761 -0.291434 0
0.645003 -0.291872 0
0.662352 -0.267758 0
0.691160 -0.219158 0
0.729860 -0.151210 0
0.774080 -0.072931 0
0.817570 0.004216 0
0.853126 0.070931 0
0.878477 0.124390 0
0.892855 0.165448 0
0.895949 0.195812 0
0.887854 0.217589 0
0.869572 0.232443 0
0.843838 0.240329 0
0.815562 0.238606 0
0.790896 0.222899 0
0.774950 0.189940 0