# vtk DataFile Version 2.0
generated by CFD-lab course output (written by Tobias Neckel) 
ASCII

DATASET STRUCTURED_GRID
DIMENSIONS  101 21 1 
POINTS 2121 float

0.000000 0.000000 0
0.100000 0.000000 0
0.200000 0.000000 0
0.300000 0.000000 0
0.400000 0.000000 0
0.500000 0.000000 0
0.600000 0.000000 0
0.700000 0.000000 0
0.800000 0.000000 0
0.900000 0.000000 0
1.000000 0.000000 0
1.100000 0.000000 0
1.200000 0.000000 0
1.300000 0.000000 0
1.400000 0.000000 0
1.500000 0.000000 0
1.600000 0.000000 0
1.700000 0.000000 0
1.800000 0.000000 0
1.900000 0.000000 0
2.000000 0.000000 0
2.100000 0.000000 0
2.200000 0.000000 0
2.300000 0.000000 0
2.400000 0.000000 0
2.500000 0.000000 0
2.600000 0.000000 0
2.700000 0.000000 0
2.800000 0.000000 0
2.900000 0.000000 0
3.000000 0.000000 0
3.100000 0.000000 0
3.200000 0.000000 0
3.300000 0.000000 0
3.400000 0.000000 0
3.500000 0.000000 0
3.600000 0.000000 0
3.700000 0.000000 0
3.800000 0.000000 0
3.900000 0.000000 0
4.000000 0.000000 0
4.100000 0.000000 0
4.200000 0.000000 0
4.300000 0.000000 0
4.400000 0.000000 0
4.500000 0.000000 0
4.600000 0.000000 0
4.700000 0.000000 0
4.800000 0.000000 0
4.900000 0.000000 0
5.000000 0.000000 0
5.100000 0.000000 0
5.200000 0.000000 0
5.300000 0.000000 0
5.400000 0.000000 0
5.500000 0.000000 0
5.600000 0.000000 0
5.700000 0.000000 0
5.800000 0.000000 0
5.900000 0.000000 0
6.000000 0.000000 0
6.100000 0.000000 0
6.200000 0.000000 0
6.300000 0.000000 0
6.400000 0.000000 0
6.500000 0.000000 0
6.600000 0.000000 0
6.700000 0.000000 0
6.800000 0.000000 0
6.900000 0.000000 0
7.000000 0.000000 0
7.100000 0.000000 0
7.200000 0.000000 0
7.300000 0.000000 0
7.400000 0.000000 0
7.500000 0.000000 0
7.600000 0.000000 0
7.700000 0.000000 0
7.800000 0.000000 0
7.900000 0.000000 0
8.000000 0.000000 0
8.100000 0.000000 0
8.200000 0.000000 0
8.300000 0.000000 0
8.400000 0.000000 0
8.500000 0.000000 0
8.600000 0.000000 0
8.700000 0.000000 0
8.800000 0.000000 0
8.900000 0.000000 0
9.000000 0.000000 0
9.100000 0.000000 0
9.200000 0.000000 0
9.300000 0.000000 0
9.400000 0.000000 0
9.500000 0.000000 0
9.600000 0.000000 0
9.700000 0.000000 0
9.800000 0.000000 0
9.900000 0.000000 0
10.000000 0.000000 0
0.000000 0.100000 0
0.100000 0.100000 0
0.200000 0.100000 0
0.300000 0.100000 0
0.400000 0.100000 0
0.500000 0.100000 0
0.600000 0.100000 0
0.700000 0.100000 0
0.800000 0.100000 0
0.900000 0.100000 0
1.000000 0.100000 0
1.100000 0.100000 0
1.200000 0.100000 0
1.300000 0.100000 0
1.400000 0.100000 0
1.500000 0.100000 0
1.600000 0.100000 0
1.700000 0.100000 0
1.800000 0.100000 0
1.900000 0.100000 0
2.000000 0.100000 0
2.100000 0.100000 0
2.200000 0.100000 0
2.300000 0.100000 0
2.400000 0.100000 0
2.500000 0.100000 0
2.600000 0.100000 0
2.700000 0.100000 0
2.800000 0.100000 0
2.900000 0.100000 0
3.000000 0.100000 0
3.100000 0.100000 0
3.200000 0.100000 0
3.300000 0.100000 0
3.400000 0.100000 0
3.500000 0.100000 0
3.600000 0.100000 0
3.700000 0.100000 0
3.800000 0.100000 0
3.900000 0.100000 0
4.000000 0.100000 0
4.100000 0.100000 0
4.200000 0.100000 0
4.300000 0.100000 0
4.400000 0.100000 0
4.500000 0.100000 0
4.600000 0.100000 0
4.700000 0.100000 0
4.800000 0.100000 0
4.900000 0.100000 0
5.000000 0.100000 0
5.100000 0.100000 0
5.200000 0.100000 0
5.300000 0.100000 0
5.400000 0.100000 0
5.500000 0.100000 0
5.600000 0.100000 0
5.700000 0.100000 0
5.800000 0.100000 0
5.900000 0.100000 0
6.000000 0.100000 0
6.100000 0.100000 0
6.200000 0.100000 0
6.300000 0.100000 0
6.400000 0.100000 0
6.500000 0.100000 0
6.600000 0.100000 0
6.700000 0.100000 0
6.800000 0.100000 0
6.900000 0.100000 0
7.000000 0.100000 0
7.100000 0.100000 0
7.200000 0.100000 0
7.300000 0.100000 0
7.400000 0.100000 0
7.500000 0.100000 0
7.600000 0.100000 0
7.700000 0.100000 0
7.800000 0.100000 0
7.900000 0.100000 0
8.000000 0.100000 0
8.100000 0.100000 0
8.200000 0.100000 0
8.300000 0.100000 0
8.400000 0.100000 0
8.500000 0.100000 0
8.600000 0.100000 0
8.700000 0.100000 0
8.800000 0.100000 0
8.900000 0.100000 0
9.000000 0.100000 0
9.100000 0.100000 0
9.200000 0.100000 0
9.300000 0.100000 0
9.400000 0.100000 0
9.500000 0.100000 0
9.600000 0.100000 0
9.700000 0.100000 0
9.800000 0.100000 0
9.900000 0.100000 0
10.000000 0.100000 0
0.000000 0.200000 0
0.100000 0.200000 0
0.200000 0.200000 0
0.300000 0.200000 0
0.400000 0.200000 0
0.500000 0.200000 0
0.600000 0.200000 0
0.700000 0.200000 0
0.800000 0.200000 0
0.900000 0.200000 0
1.000000 0.200000 0
1.100000 0.200000 0
1.200000 0.200000 0
1.300000 0.200000 0
1.400000 0.200000 0
1.500000 0.200000 0
1.600000 0.200000 0
1.700000 0.200000 0
1.800000 0.200000 0
1.900000 0.200000 0
2.000000 0.200000 0
2.100000 0.200000 0
2.200000 0.200000 0
2.300000 0.200000 0
2.400000 0.200000 0
2.500000 0.200000 0
2.600000 0.200000 0
2.700000 0.200000 0
2.800000 0.200000 0
2.900000 0.200000 0
3.000000 0.200000 0
3.100000 0.200000 0
3.200000 0.200000 0
3.300000 0.200000 0
3.400000 0.200000 0
3.500000 0.200000 0
3.600000 0.200000 0
3.700000 0.200000 0
3.800000 0.200000 0
3.900000 0.200000 0
4.000000 0.200000 0
4.100000 0.200000 0
4.200000 0.200000 0
4.300000 0.200000 0
4.400000 0.200000 0
4.500000 0.200000 0
4.600000 0.200000 0
4.700000 0.200000 0
4.800000 0.200000 0
4.900000 0.200000 0
5.000000 0.200000 0
5.100000 0.200000 0
5.200000 0.200000 0
5.300000 0.200000 0
5.400000 0.200000 0
5.500000 0.200000 0
5.600000 0.200000 0
5.700000 0.200000 0
5.800000 0.200000 0
5.900000 0.200000 0
6.000000 0.200000 0
6.100000 0.200000 0
6.200000 0.200000 0
6.300000 0.200000 0
6.400000 0.200000 0
6.500000 0.200000 0
6.600000 0.200000 0
6.700000 0.200000 0
6.800000 0.200000 0
6.900000 0.200000 0
7.000000 0.200000 0
7.100000 0.200000 0
7.200000 0.200000 0
7.300000 0.200000 0
7.400000 0.200000 0
7.500000 0.200000 0
7.600000 0.200000 0
7.700000 0.200000 0
7.800000 0.200000 0
7.900000 0.200000 0
8.000000 0.200000 0
8.100000 0.200000 0
8.200000 0.200000 0
8.300000 0.200000 0
8.400000 0.200000 0
8.500000 0.200000 0
8.600000 0.200000 0
8.700000 0.200000 0
8.800000 0.200000 0
8.900000 0.200000 0
9.000000 0.200000 0
9.100000 0.200000 0
9.200000 0.200000 0
9.300000 0.200000 0
9.400000 0.200000 0
9.500000 0.200000 0
9.600000 0.200000 0
9.700000 0.200000 0
9.800000 0.200000 0
9.900000 0.200000 0
10.000000 0.200000 0
0.000000 0.300000 0
0.100000 0.300000 0
0.200000 0.300000 0
0.300000 0.300000 0
0.400000 0.300000 0
0.500000 0.300000 0
0.600000 0.300000 0
0.700000 0.300000 0
0.800000 0.300000 0
0.900000 0.300000 0
1.000000 0.300000 0
1.100000 0.300000 0
1.200000 0.300000 0
1.300000 0.300000 0
1.400000 0.300000 0
1.500000 0.300000 0
1.600000 0.300000 0
1.700000 0.300000 0
1.800000 0.300000 0
1.900000 0.300000 0
2.000000 0.300000 0
2.100000 0.300000 0
2.200000 0.300000 0
2.300000 0.300000 0
2.400000 0.300000 0
2.500000 0.300000 0
2.600000 0.300000 0
2.700000 0.300000 0
2.800000 0.300000 0
2.900000 0.300000 0
3.000000 0.300000 0
3.100000 0.300000 0
3.200000 0.300000 0
3.300000 0.300000 0
3.400000 0.300000 0
3.500000 0.300000 0
3.600000 0.300000 0
3.700000 0.300000 0
3.800000 0.300000 0
3.900000 0.300000 0
4.000000 0.300000 0
4.100000 0.300000 0
4.200000 0.300000 0
4.300000 0.300000 0
4.400000 0.300000 0
4.500000 0.300000 0
4.600000 0.300000 0
4.700000 0.300000 0
4.800000 0.300000 0
4.900000 0.300000 0
5.000000 0.300000 0
5.100000 0.300000 0
5.200000 0.300000 0
5.300000 0.300000 0
5.400000 0.300000 0
5.500000 0.300000 0
5.600000 0.300000 0
5.700000 0.300000 0
5.800000 0.300000 0
5.900000 0.300000 0
6.000000 0.300000 0
6.100000 0.300000 0
6.200000 0.300000 0
6.300000 0.300000 0
6.400000 0.300000 0
6.500000 0.300000 0
6.600000 0.300000 0
6.700000 0.300000 0
6.800000 0.300000 0
6.900000 0.300000 0
7.000000 0.300000 0
7.100000 0.300000 0
7.200000 0.300000 0
7.300000 0.300000 0
7.400000 0.300000 0
7.500000 0.300000 0
7.600000 0.300000 0
7.700000 0.300000 0
7.800000 0.300000 0
7.900000 0.300000 0
8.000000 0.300000 0
8.100000 0.300000 0
8.200000 0.300000 0
8.300000 0.300000 0
8.400000 0.300000 0
8.500000 0.300000 0
8.600000 0.300000 0
8.700000 0.300000 0
8.800000 0.300000 0
8.900000 0.300000 0
9.000000 0.300000 0
9.100000 0.300000 0
9.200000 0.300000 0
9.300000 0.300000 0
9.400000 0.300000 0
9.500000 0.300000 0
9.600000 0.300000 0
9.700000 0.300000 0
9.800000 0.300000 0
9.900000 0.300000 0
10.000000 0.300000 0
0.000000 0.400000 0
0.100000 0.400000 0
0.200000 0.400000 0
0.300000 0.400000 0
0.400000 0.400000 0
0.500000 0.400000 0
0.600000 0.400000 0
0.700000 0.400000 0
0.800000 0.400000 0
0.900000 0.400000 0
1.000000 0.400000 0
1.100000 0.400000 0
1.200000 0.400000 0
1.300000 0.400000 0
1.400000 0.400000 0
1.500000 0.400000 0
1.600000 0.400000 0
1.700000 0.400000 0
1.800000 0.400000 0
1.900000 0.400000 0
2.000000 0.400000 0
2.100000 0.400000 0
2.200000 0.400000 0
2.300000 0.400000 0
2.400000 0.400000 0
2.500000 0.400000 0
2.600000 0.400000 0
2.700000 0.400000 0
2.800000 0.400000 0
2.900000 0.400000 0
3.000000 0.400000 0
3.100000 0.400000 0
3.200000 0.400000 0
3.300000 0.400000 0
3.400000 0.400000 0
3.500000 0.400000 0
3.600000 0.400000 0
3.700000 0.400000 0
3.800000 0.400000 0
3.900000 0.400000 0
4.000000 0.400000 0
4.100000 0.400000 0
4.200000 0.400000 0
4.300000 0.400000 0
4.400000 0.400000 0
4.500000 0.400000 0
4.600000 0.400000 0
4.700000 0.400000 0
4.800000 0.400000 0
4.900000 0.400000 0
5.000000 0.400000 0
5.100000 0.400000 0
5.200000 0.400000 0
5.300000 0.400000 0
5.400000 0.400000 0
5.500000 0.400000 0
5.600000 0.400000 0
5.700000 0.400000 0
5.800000 0.400000 0
5.900000 0.400000 0
6.000000 0.400000 0
6.100000 0.400000 0
6.200000 0.400000 0
6.300000 0.400000 0
6.400000 0.400000 0
6.500000 0.400000 0
6.600000 0.400000 0
6.700000 0.400000 0
6.800000 0.400000 0
6.900000 0.400000 0
7.000000 0.400000 0
7.100000 0.400000 0
7.200000 0.400000 0
7.300000 0.400000 0
7.400000 0.400000 0
7.500000 0.400000 0
7.600000 0.400000 0
7.700000 0.400000 0
7.800000 0.400000 0
7.900000 0.400000 0
8.000000 0.400000 0
8.100000 0.400000 0
8.200000 0.400000 0
8.300000 0.400000 0
8.400000 0.400000 0
8.500000 0.400000 0
8.600000 0.400000 0
[...]
POINT_DATA 2121 

VECTORS velocity float
0.500000 0.000000 0
0.000002 0.000000 0
0.000004 0.000000 0
0.000006 0.000000 0
0.000005 0.000000 0
-0.000003 0.000000 0
-0.000020 0.000000 0
-0.000050 0.000000 0
-0.000094 0.000000 0
-0.000156 0.000000 0
-0.000234 0.000000 0
-0.000325 0.000000 0
-0.000423 0.000000 0
-0.000509 0.000000 0
-0.000560 0.000000 0
-0.000545 0.000000 0
-0.000435 0.000000 0
-0.000215 0.000000 0
0.000109 0.000000 0
0.000510 0.000000 0
0.000944 0.000000 0
0.001362 0.000000 0
0.001719 0.000000 0
0.001978 0.000000 0
0.002110 0.000000 0
0.002095 0.000000 0
0.001920 0.000000 0
0.001579 0.000000 0
0.001076 0.000000 0
0.000417 0.000000 0
-0.000389 0.000000 0
-0.001331 0.000000 0
-0.002358 0.000000 0
-0.003344 0.000000 0
-0.004140 0.000000 0
-0.004579 0.000000 0
-0.004521 0.000000 0
-0.003918 0.000000 0
-0.002848 0.000000 0
-0.001511 0.000000 0
-0.000135 0.000000 0
0.001164 0.000000 0
0.002300 0.000000 0
0.003217 0.000000 0
0.003892 0.000000 0
0.004325 0.000000 0
0.004525 0.000000 0
0.004506 0.000000 0
0.004279 0.000000 0
0.003851 0.000000 0
0.003221 0.000000 0
0.002381 0.000000 0
0.001322 0.000000 0
0.000062 0.000000 0
-0.001282 0.000000 0
-0.002579 0.000000 0
-0.003779 0.000000 0
-0.004834 0.000000 0
-0.005680 0.000000 0
-0.006234 0.000000 0
-0.006393 0.000000 0
-0.006046 0.000000 0
-0.005120 0.000000 0
-0.003651 0.000000 0
-0.001837 0.000000 0
0.000030 0.000000 0
0.001808 0.000000 0
0.003406 0.000000 0
0.004728 0.000000 0
0.005698 0.000000 0
0.006264 0.000000 0
0.006398 0.000000 0
0.006097 0.000000 0
0.005383 0.000000 0
0.004305 0.000000 0
0.002947 0.000000 0
0.001434 0.000000 0
-0.000055 0.000000 0
-0.001270 0.000000 0
-0.002203 0.000000 0
-0.002916 0.000000 0
-0.003480 0.000000 0
-0.003944 0.000000 0
-0.004335 0.000000 0
-0.004647 0.000000 0
-0.004835 0.000000 0
-0.004817 0.000000 0
-0.004498 0.000000 0
-0.003795 0.000000 0
-0.002693 0.000000 0
-0.001280 0.000000 0
0.000273 0.000000 0
0.001862 0.000000 0
0.003419 0.000000 0
0.004843 0.000000 0
0.006014 0.000000 0
0.006805 0.000000 0
0.007114 0.000000 0
0.006923 0.000000 0
0.006346 0.000000 0
0.005996 0.000000 0
1.000000 -0.000002 0
1.002539 -0.004583 0
1.010414 -0.009957 0
1.024016 -0.015822 0
1.043790 -0.021988 0
1.070036 -0.028103 0
1.102607 -0.033531 0
1.140510 -0.037392 0
1.181612 -0.038792 0
1.222553 -0.037413 0
1.260285 -0.033807 0
1.293008 -0.028947 0
1.320132 -0.023721 0
1.341862 -0.018693 0
1.358759 -0.014076 0
1.371383 -0.009793 0
1.380021 -0.005602 0
1.384586 -0.001269 0
1.384719 0.003334 0
1.380020 0.008167 0
1.370270 0.013014 0
1.355576 0.017566 0
1.336414 0.021505 0
1.313584 0.024556 0
1.288133 0.026513 0
1.261278 0.027238 0
1.234334 0.026660 0
1.208648 0.024764 0
1.185551 0.021576 0
1.166315 0.017151 0
1.152135 0.011541 0
1.144106 0.004815 0
1.143160 -0.002706 0
1.149885 -0.010286 0
1.164175 -0.016919 0
1.184822 -0.021489 0
1.209352 -0.023017 0
1.234282 -0.021028 0
1.255805 -0.015822 0
1.270713 -0.008454 0
1.277132 -0.000236 0
1.274676 0.007857 0
1.263938 0.015209 0
1.246075 0.021390 0
1.222544 0.026168 0
1.194906 0.029464 0
1.164713 0.031290 0
1.133448 0.031696 0
1.102519 0.030730 0
1.073270 0.028420 0
1.046991 0.024753 0
1.024914 0.019681 0
1.008154 0.013165 0
0.997620 0.005350 0
0.993939 -0.003107 0
0.997450 -0.011379 0
1.008162 -0.018972 0
1.025740 -0.025551 0
1.049480 -0.030763 0
1.078302 -0.034184 0
1.110717 -0.035303 0
1.144717 -0.033585 0
1.177682 -0.028672 0
1.206481 -0.020728 0
1.227881 -0.010715 0
1.239259 -0.000042 0
1.239479 0.010269 0
1.229109 0.019644 0
1.209453 0.027568 0
1.182302 0.033594 0
1.149809 0.037388 0
1.114353 0.038739 0
1.078402 0.037553 0
1.044368 0.033868 0
1.014420 0.027896 0
0.990267 0.020071 0
0.972928 0.011114 0
0.962645 0.002127 0
0.959040 -0.005642 0
0.961340 -0.011674 0
0.968553 -0.016235 0
0.979812 -0.019718 0
0.994475 -0.022458 0
1.012126 -0.024658 0
1.032498 -0.026345 0
1.055301 -0.027335 0
1.080014 -0.027257 0
1.105690 -0.025640 0
1.130873 -0.022085 0
1.153651 -0.016509 0
1.171869 -0.009338 0
1.183500 -0.001376 0
1.187192 0.006678 0
1.182821 0.014341 0
1.171175 0.021059 0
1.153607 0.026141 0
1.132051 0.028833 0
1.108954 0.028454 0
1.087060 0.024551 0
1.069034 0.017177 0
1.057536 0.012324 0
1.000000 -0.000003 0
1.002855 -0.010428 0
1.011179 -0.021487 0
1.025316 -0.033383 0
1.045924 -0.046023 0
1.073728 -0.058818 0
1.109120 -0.070474 0
1.151484 -0.079004 0
1.198617 -0.082043 0
1.245034 -0.078673 0
1.286385 -0.070453 0
1.320902 -0.059844 0
1.348602 -0.048850 0
1.370347 -0.038624 0
1.387256 -0.029518 0
1.400287 -0.021259 0
1.409904 -0.013203 0
1.415897 -0.004698 0
1.417563 0.004565 0
1.414198 0.014446 0
1.405376 0.024440 0
1.391145 0.033850 0
1.372033 0.041986 0
1.348938 0.048274 0
1.323012 0.052297 0
1.295557 0.053790 0
1.267951 0.052623 0
1.241582 0.048778 0
1.217795 0.042330 0
1.197840 0.033415 0
1.182871 0.022209 0
1.173959 0.008977 0
1.172144 -0.005776 0
1.178411 -0.021013 0
1.193161 -0.034935 0
1.215588 -0.045174 0
1.243408 -0.049456 0
1.273002 -0.046450 0
1.299940 -0.036429 0
1.319959 -0.021324 0
1.330237 -0.003960 0
1.330282 0.013195 0
1.321147 0.028601 0
1.304386 0.041395 0
1.281739 0.051169 0
1.254933 0.057830 0
1.225575 0.061456 0
1.195125 0.062192 0
1.164906 0.060176 0
1.136126 0.055525 0
1.109869 0.048353 0
1.087061 0.038836 0
1.068397 0.027293 0
1.054301 0.014214 0
1.045044 0.000170 0
1.041090 -0.014221 0
1.042855 -0.028287 0
1.050505 -0.041314 0
1.063987 -0.052557 0
1.083136 -0.061232 0
1.107650 -0.066410 0
1.136810 -0.066960 0
1.169119 -0.061759 0
1.202077 -0.050195 0
1.232209 -0.032774 0
1.255449 -0.011594 0
1.268326 0.010153 0
1.269828 0.030029 0
1.261110 0.046811 0
1.243901 0.059647 0
1.220266 0.067951 0
1.192435 0.071409 0
1.162639 0.069987 0
1.132928 0.063983 0
1.105002 0.054102 0
1.080061 0.041492 0
1.058756 0.027620 0
1.041296 0.013886 0
1.027808 0.001302 0
1.018508 -0.009519 0
1.013289 -0.018479 0
1.011857 -0.025930 0
1.014028 -0.032324 0
1.019851 -0.038035 0
1.029590 -0.043189 0
1.043530 -0.047531 0
1.061694 -0.050405 0
1.083628 -0.050876 0
1.108317 -0.047979 0
1.134202 -0.041015 0
1.159227 -0.029868 0
1.180967 -0.015343 0
1.197067 0.000658 0
1.206070 0.015996 0
1.208147 0.029194 0
1.204418 0.039103 0
1.196360 0.044632 0
1.185640 0.044970 0
1.173913 0.039898 0
1.162509 0.029503 0
1.153482 0.022620 0
1.000000 -0.000005 0
1.002452 -0.015772 0
1.009939 -0.032419 0
1.023084 -0.050566 0
1.043036 -0.070400 0
1.071351 -0.091298 0
1.109618 -0.111286 0
1.158340 -0.126889 0
1.216278 -0.132344 0
1.271264 -0.125181 0
1.316433 -0.109673 0
1.351087 -0.091163 0
1.376883 -0.073165 0
1.395971 -0.057347 0
1.410450 -0.044017 0
1.422030 -0.032442 0
1.431580 -0.021213 0
1.438682 -0.008929 0
1.441816 0.005030 0
1.439499 0.020350 0
1.430880 0.036062 0
1.415929 0.050905 0
1.395321 0.063708 0
1.370163 0.073573 0
1.341791 0.079891 0
1.311658 0.082297 0
1.281256 0.080633 0
1.252059 0.074920 0
1.225450 0.065319 0
1.202667 0.052076 0
1.184798 0.035425 0
1.172863 0.015544 0
1.167998 -0.007157 0
1.171552 -0.031302 0
1.184346 -0.054095 0
1.206004 -0.071734 0
1.234891 -0.080430 0
1.268146 -0.077560 0
1.301497 -0.062779 0
1.329507 -0.038751 0
1.347039 -0.010559 0
1.351747 0.016947 0
1.345116 0.041105 0
1.329521 0.060798 0
1.307318 0.075619 0
1.280613 0.085627 0
1.251177 0.091098 0
1.220474 0.092363 0
1.189713 0.089728 0
1.159915 0.083456 0
1.131944 0.073818 0
1.106521 0.061154 0
1.084211 0.045925 0
1.065399 0.028704 0
1.050251 0.010106 0
1.038701 -0.009187 0
1.030689 -0.028384 0
1.026510 -0.046682 0
1.026856 -0.063392 0
1.032885 -0.077844 0
1.045893 -0.088976 0
1.066532 -0.095053 0
1.094245 -0.093937 0
1.127158 -0.083816 0
1.162233 -0.064085 0
1.195502 -0.036158 0
1.222387 -0.004108 0
1.238870 0.026860 0
1.244371 0.053496 0
1.240200 0.074440 0
1.228074 0.088855 0
1.209901 0.096366 0
1.187573 0.097060 0
1.162818 0.091506 0
1.137101 0.080763 0
1.111609 0.066317 0
1.087301 0.049878 0
1.064935 0.033073 0
1.044958 0.017144 0
1.027498 0.002842 0
1.012564 -0.009588 0
1.000217 -0.020461 0
0.990954 -0.030456 0
0.985730 -0.040225 0
0.985641 -0.050029 0
0.991527 -0.059444 0
1.003602 -0.067360 0
1.021365 -0.072267 0
1.043749 -0.072663 0
1.069327 -0.067424 0
1.096470 -0.056107 0
1.123401 -0.039220 0
1.148156 -0.018429 0
1.168564 0.003258 0
1.183108 0.022707 0
1.191896 0.037924 0
1.195708 0.047608 0
1.195434 0.050898 0
1.192000 0.047678 0
1.186302 0.037604 0
1.179979 0.030641 0
1.000000 -0.000007 0
1.001917 -0.020375 0
1.007922 -0.042120 0
1.018915 -0.066480 0
1.036644 -0.094289 0
1.063884 -0.125400 0
1.104416 -0.157464 0
1.161607 -0.185666 0
1.239698 -0.194967 0
1.305715 -0.178825 0
1.351223 -0.150274 0
1.380852 -0.120294 0
1.399750 -0.093735 0
1.411753 -0.072192 0
1.420081 -0.055578 0
1.427553 -0.042391 0
1.436002 -0.029857 0
1.445075 -0.014937 0
1.451672 0.003744 0
1.452150 0.025379 0
1.444881 0.048006 0
1.429781 0.069405 0
1.407856 0.087749 0
1.380546 0.101800 0
1.349424 0.110800 0
1.316114 0.114325 0
1.282265 0.112222 0
1.249493 0.104585 0
1.219280 0.091723 0
1.192858 0.074068 0
1.171154 0.052015 0
1.154782 0.025779 0
1.144031 -0.004464 0
1.139427 -0.037361 0
1.142393 -0.069386 0
1.153739 -0.095718 0
1.174102 -0.111598 0
1.203502 -0.113056 0
1.239929 -0.097789 0
1.278330 -0.066866 0
1.310983 -0.026201 0
1.330161 0.015117 0
1.333878 0.050826 0
1.325399 0.079192 0
1.307957 0.100075 0
1.284291 0.113970 0
1.256608 0.121595 0
1.226640 0.123656 0
1.195744 0.120734 0
1.165004 0.113293 0
1.135311 0.101746 0
1.107390 0.086569 0
1.081733 0.068417 0
1.058415 0.048176 0
1.036921 0.026870 0
1.016264 0.005343 0
0.995715 -0.016093 0
0.975992 -0.037477 0
0.960086 -0.058930 0
0.951789 -0.080268 0
0.953914 -0.100055 0
0.967248 -0.115310 0
0.990760 -0.122384 0
1.022301 -0.118182 0
1.059095 -0.101117 0
1.097905 -0.071746 0
1.134931 -0.033214 0
1.165481 0.008046 0
1.185679 0.045483 0
1.195516 0.075945 0
1.196121 0.098250 0
1.188961 0.111911 0
1.175600 0.117071 0
1.157550 0.114455 0
1.136195 0.105311 0
1.112770 0.091292 0
1.088330 0.074294 0
1.063668 0.056228 0
1.039234 0.038737 0
1.015214 0.022873 0
0.991952 0.008799 0
0.970373 -0.004323 0
0.952029 -0.017841 0
0.938935 -0.032725 0
0.932876 -0.048989 0
0.934639 -0.065496 0
0.943909 -0.080246 0
0.959639 -0.091026 0
0.980471 -0.095944 0
1.004996 -0.093738 0
1.031865 -0.083944 0
1.059780 -0.067032 0
1.087416 -0.044506 0
1.113274 -0.018957 0
1.135408 0.005860 0
1.152428 0.026502 0
1.164333 0.041093 0
1.171469 0.048677 0
1.174306 0.049030 0
1.173486 0.041523 0
1.169855 0.035957 0
1.000000 -0.000009 0
1.001087 -0.023701 0
1.004615 -0.049418 0
1.011581 -0.079289 0
1.024136 -0.115368 0
1.046305 -0.159070 0
1.085072 -0.209011 0
1.150057 -0.262172 0
1.263541 -0.276451 0
1.334384 -0.236704 0
1.365866 -0.184810 0
1.378579 -0.139691 0
1.381950 -0.104067 0
1.380034 -0.077679 0
1.376162 -0.059818 0
1.374159 -0.048365 0
1.377870 -0.038738 0
1.388615 -0.024602 0
1.402393 -0.002048 0
1.410309 0.027138 0
1.408279 0.058428 0
1.396462 0.087927 0
1.376537 0.112939 0
1.350272 0.132002 0
1.319295 0.144321 0
1.285213 0.149455 0
1.249715 0.147255 0
1.214528 0.137906 0
1.181217 0.121956 0
1.150873 0.100204 0
1.123933 0.073503 0
1.100238 0.042668 0
1.078814 0.008197 0
1.057744 -0.029664 0
1.037948 -0.068406 0
1.025286 -0.103442 0
1.025953 -0.130192 0
1.043549 -0.143387 0
1.077560 -0.137607 0
1.123643 -0.109806 0
1.174092 -0.062391 0
1.218434 -0.005948 0
1.246608 0.045866 0
1.258039 0.086718 0
1.256540 0.116726 0
1.245281 0.136974 0
1.226859 0.148747 0
1.203383 0.153227 0
1.176575 0.151363 0
1.147851 0.143889 0
1.118373 0.131432 0
1.088990 0.114732 0
1.059955 0.094900 0
1.030546 0.073517 0
0.999189 0.052260 0
0.964765 0.032021 0
0.928503 0.011889 0
0.894532 -0.011051 0
0.868489 -0.039187 0
0.855127 -0.071670 0
0.855597 -0.104433 0
0.868345 -0.131898 0
0.891006 -0.148989 0
0.921297 -0.152149 0
0.957089 -0.139688 0
0.996212 -0.111992 0
1.036228 -0.071683 0
1.074101 -0.023887 0
1.105258 0.023461 0
1.126838 0.063998 0
1.138982 0.095411 0
1.142466 0.116888 0
1.138375 0.128472 0
1.127891 0.130911 0
1.112174 0.125543 0
1.092253 0.114182 0
1.068930 0.098978 0
1.042736 0.082167 0
1.014112 0.065597 0
0.983878 0.050122 0
0.953741 0.035252 0
0.926327 0.019460 0
0.904442 0.000980 0
0.890166 -0.021074 0
0.884409 -0.045735 0
0.886815 -0.070478 0
0.896211 -0.092361 0
0.911213 -0.108830 0
0.930555 -0.118022 0
0.953149 -0.118818 0
0.978040 -0.110891 0
1.004333 -0.094770 0
1.031122 -0.071923 0
1.057403 -0.044734 0
1.081949 -0.016446 0
1.102986 0.009000 0
1.119348 0.028568 0
1.130944 0.040926 0
1.137890 0.045662 0
1.140531 0.042057 0
1.139101 0.038824 0
1.000000 -0.000012 0
0.999911 -0.024996 0
0.999798 -0.052614 0
1.000351 -0.086001 0
1.003368 -0.129014 0
1.013056 -0.186338 0
1.038991 -0.261216 0
1.100754 -0.364134 0
1.262469 -0.379294 0
1.309035 -0.281150 0
1.295152 -0.194469 0
1.274947 -0.136379 0
1.254968 -0.095191 0
1.233880 -0.066405 0
1.212166 -0.049704 0
1.192969 -0.044101 0
1.183179 -0.044316 0
1.189390 -0.039464 0
1.212019 -0.017953 0
1.239114 0.019490 0
1.253326 0.061849 0
1.254928 0.101144 0
1.247081 0.133936 0
1.231551 0.159040 0
1.209395 0.175858 0
1.181744 0.183905 0
1.150124 0.182908 0
1.116387 0.173084 0
1.082152 0.155379 0
1.047575 0.131353 0
1.010340 0.102652 0
0.967128 0.070899 0
0.917756 0.038030 0
0.867361 0.003506 0
0.824062 -0.036927 0
0.797993 -0.083722 0
0.794545 -0.129861 0
0.812772 -0.164663 0
0.849493 -0.177883 0
0.900851 -0.163398 0
0.962061 -0.120992 0
1.026391 -0.057400 0
1.083264 0.011221 0
1.122754 0.069259 0
1.145601 0.112832 0
1.154915 0.143649 0
1.153205 0.163491 0
1.142652 0.173939 0
1.125162 0.176266 0
1.102336 0.171495 0
1.075310 0.160607 0
1.044440 0.144988 0
1.009049 0.126862 0
0.967930 0.108944 0
0.921132 0.092653 0
0.872049 0.076031 0
0.827485 0.054142 0
0.794621 0.022539 0
0.777014 -0.019523 0
0.773815 -0.067374 0
0.781688 -0.113272 0
0.797524 -0.150718 0
0.819455 -0.175334 0
0.846556 -0.184263 0
0.878159 -0.176031 0
0.913330 -0.150884 0
0.950662 -0.111102 0
0.988264 -0.060984 0
1.023414 -0.007254 0
1.051837 0.042222 0
1.071933 0.082624 0
1.083613 0.112519 0
1.087292 0.131646 0
1.083622 0.140656 0
1.073301 0.140949 0
1.056921 0.134535 0
1.034926 0.123811 0
1.007804 0.111045 0
0.976581 0.097593 0
0.943356 0.083242 0
0.911368 0.066349 0
0.884271 0.044975 0
0.864957 0.018319 0
0.854521 -0.012692 0
0.852284 -0.045638 0
0.856738 -0.077297 0
0.866354 -0.104644 0
0.879947 -0.125370 0
0.896703 -0.137879 0
0.916040 -0.141221 0
0.937458 -0.135126 0
0.960417 -0.120111 0
0.984282 -0.097574 0
1.008297 -0.069781 0
1.031560 -0.039719 0
1.052911 -0.010894 0
1.070756 0.013139 0
1.084281 0.030139 0
1.093315 0.039447 0
1.097919 0.040316 0
1.098032 0.039835 0
1.000000 -0.000014 0
0.998493 -0.023504 0
0.993874 -0.049858 0
0.985968 -0.082859 0
0.974873 -0.128075 0
0.962021 -0.194695 0
0.953631 -0.296709 0
0.971611 -0.485649 0
1.128481 -0.484731 0
1.115164 -0.269388 0
1.011050 -0.150723 0
0.953018 -0.099508 0
0.914208 -0.063001 0
0.878159 -0.034879 0
0.835747 -0.018909 0
0.794461 -0.019381 0
0.765639 -0.035162 0
0.765008 -0.053444 0
0.799673 -0.051775 0
0.859990 -0.014173 0
0.919933 0.042610 0
0.959646 0.094168 0
0.983739 0.136314 0
0.995585 0.169686 0
0.995386 0.194127 0
0.983491 0.208727 0
0.960562 0.212613 0
0.927022 0.205880 0
0.882585 0.190770 0
0.826823 0.172017 0
0.761258 0.153950 0
0.691561 0.135252 0
0.627904 0.107965 0
0.582457 0.064031 0
0.562479 0.000963 0
0.565094 -0.073925 0
0.583706 -0.144970 0
0.613785 -0.198335 0
0.653856 -0.225687 0
0.703969 -0.222374 0
0.763658 -0.187931 0
0.830640 -0.127153 0
0.899974 -0.050498 0
0.960890 0.024380 0
1.005320 0.084564 0
1.034445 0.129369 0
1.050068 0.161010 0
1.053851 0.181268 0
1.047317 0.191678 0
1.031637 0.193742 0
1.007309 0.189329 0
0.974005 0.180993 0
0.931275 0.171412 0
0.880500 0.161437 0
0.826922 0.148143 0
0.779136 0.125671 0
0.745231 0.089320 0
0.728703 0.039422 0
0.727582 -0.018380 0
0.736048 -0.076343 0
0.749211 -0.128140 0
0.764799 -0.169663 0
0.782470 -0.198019 0
0.802893 -0.210853 0
0.826897 -0.206461 0
0.854774 -0.184493 0
0.885941 -0.146615 0
0.919045 -0.096638 0
0.952210 -0.040110 0
0.982382 0.015481 0
1.006290 0.063636 0
1.022896 0.101530 0
1.031872 0.128464 0
1.033237 0.144902 0
1.027145 0.152244 0
1.013791 0.152557 0
0.993567 0.148095 0
0.967464 0.140512 0
0.937554 0.130045 0
0.907064 0.115335 0
0.879717 0.094337 0
0.858587 0.065870 0
0.845215 0.030731 0
0.839523 -0.008399 0
0.840204 -0.047951 0
0.845542 -0.084546 0
0.854161 -0.115568 0
0.865205 -0.139176 0
0.878259 -0.154111 0
0.893183 -0.159570 0
0.909909 -0.155263 0
0.928260 -0.141589 0
0.947860 -0.119798 0
0.968118 -0.092007 0
0.988269 -0.061055 0
1.007393 -0.030189 0
1.024337 -0.002795 0
1.037796 0.018373 0
1.047248 0.032030 0
1.052547 0.037347 0
1.053586 0.039623 0
1.000000 -0.000015 0
0.997127 -0.018875 0
0.988096 -0.040090 0
0.971531 -0.067002 0
0.944743 -0.105067 0
0.902899 -0.165097 0
0.837125 -0.270806 0
0.731685 -0.538983 0
0.546256 -0.522847 0
0.000368 -0.163719 0
0.397577 -0.032323 0
0.327753 -0.039538 0
0.310581 -0.020335 0
0.298761 0.012053 0
0.276281 0.033991 0
0.249818 0.026005 0
0.236853 -0.014866 0
0.253929 -0.073501 0
0.305671 -0.112938 0
0.388644 -0.100774 0
0.488860 -0.037811 0
0.578916 0.037336 0
0.644260 0.097995 0
0.688302 0.147391 0
0.712369 0.187952 0
0.716373 0.218729 0
0.700182 0.239377 0
0.663779 0.251063 0
0.608665 0.255579 0
0.540701 0.252681 0
0.472189 0.237914 0
0.419125 0.204253 0
0.393533 0.147135 0
0.397451 0.068932 0
0.423101 -0.019564 0
0.455696 -0.104950 0
0.486552 -0.178552 0
0.515275 -0.234813 0
0.545440 -0.268068 0
0.581733 -0.273200 0
0.627659 -0.247664 0
0.683807 -0.193718 0
0.747522 -0.119031 0
0.813139 -0.036088 0
0.869687 0.039276 0
0.911639 0.098900 0
0.939575 0.144084 0
0.954207 0.176689 0
0.956219 0.198480 0
0.946029 0.211503 0
0.923755 0.218240 0
0.889863 0.221023 0
0.846714 0.220369 0
0.800054 0.213300 0
0.758371 0.194019 0
0.729407 0.157724 0
0.716394 0.104577 0
0.717347 0.040189 0
0.727334 -0.026866 0
0.740846 -0.089001 0
0.754393 -0.142021 0
0.766580 -0.183976 0
0.777668 -0.213426 0
0.789112 -0.228688 0
0.802893 -0.227910 0
0.820635 -0.209927 0
0.842847 -0.175372 0
0.868750 -0.127252 0
0.896653 -0.070590 0
0.924371 -0.011856 0
0.948491 0.042111 0
0.966909 0.086938 0
0.978602 0.121306 0
0.983020 0.145384 0
0.979900 0.160395 0
0.969317 0.168114 0
0.951967 0.170138 0
0.929552 0.167058 0
0.904896 0.157994 0
0.881460 0.141080 0
0.862333 0.114827 0
0.849310 0.079479 0
0.842647 0.037385 0
0.841505 -0.007679 0
0.844499 -0.051654 0
0.850160 -0.091250 0
0.857371 -0.124303 0
0.865496 -0.149463 0
0.874365 -0.165852 0
0.884173 -0.172865 0
0.895275 -0.170196 0
0.907936 -0.158055 0
0.922138 -0.137425 0
0.937517 -0.110182 0
0.953418 -0.078986 0
0.968999 -0.046954 0
0.983305 -0.017255 0
0.995198 0.007236 0
1.003823 0.024705 0
1.008891 0.033988 0
1.010385 0.038710 0
1.000000 -0.000016 0
0.996207 -0.011606 0
0.984207 -0.024262 0
0.961801 -0.039507 0
0.924382 -0.059444 0
0.862738 -0.087077 0
0.757270 -0.125497 0
0.564823 -0.194782 0
0.074124 0.000032 0
-0.530736 0.121315 0
0.000000 -0.000054 0
-0.032157 -0.023036 0
-0.049508 -0.034011 0
-0.076291 -0.000581 0
-0.103684 0.030031 0
-0.121952 0.020044 0
-0.115980 -0.039275 0
-0.083914 -0.122266 0
-0.033682 -0.186495 0
0.036999 -0.197366 0
0.132735 -0.147665 0
0.236806 -0.061234 0
0.326742 0.026927 0
0.391177 0.101576 0
0.430975 0.166055 0
0.447027 0.220914 0
0.440365 0.265208 0
0.414264 0.297399 0
0.376498 0.313849 0
0.339824 0.308493 0
0.318421 0.275527 0
0.321539 0.213908 0
0.349171 0.129640 0
0.392737 0.034464 0
0.436916 -0.057283 0
0.472598 -0.137376 0
0.497740 -0.204549 0
0.513694 -0.257223 0
0.524842 -0.292146 0
0.537817 -0.304594 0
0.559517 -0.290006 0
0.594261 -0.247018 0
0.641815 -0.179831 0
0.697762 -0.097786 0
0.754433 -0.013938 0
0.801408 0.059480 0
0.835376 0.118441 0
0.855942 0.164624 0
0.863037 0.199857 0
0.856785 0.226206 0
0.837988 0.245497 0
0.809202 0.258036 0
0.775743 0.261223 0
0.745241 0.249781 0
0.724950 0.218792 0
0.718452 0.167650 0
0.724591 0.101381 0
0.739214 0.028484 0
0.757092 -0.041876 0
0.773892 -0.103400 0
0.787251 -0.153872 0
0.796156 -0.192937 0
0.800886 -0.220550 0