# vtk DataFile Version 2.0
generated by CFD-lab course output (written by Tobias Neckel) 
ASCII

DATASET STRUCTURED_GRID
DIMENSIONS  101 21 1 
POINTS 2121 float

0.000000 0.000000 0
0.100000 0.000000 0
0.200000 0.000000 0
0.300000 0.000000 0
0.400000 0.000000 0
0.500000 0.000000 0
0.600000 0.000000 0
0.700000 0.000000 0
0.800000 0.000000 0
0.900000 0.000000 0
1.000000 0.000000 0
1.100000 0.000000 0
1.200000 0.000000 0
1.300000 0.000000 0
1.400000 0.000000 0
1.500000 0.000000 0
1.600000 0.000000 0
1.700000 0.000000 0
1.800000 0.000000 0
1.900000 0.000000 0
2.000000 0.000000 0
2.100000 0.000000 0
2.200000 0.000000 0
2.300000 0.000000 0
2.400000 0.000000 0
2.500000 0.000000 0
2.600000 0.000000 0
2.700000 0.000000 0
2.800000 0.000000 0
2.900000 0.000000 0
3.000000 0.000000 0
3.100000 0.000000 0
3.200000 0.000000 0
3.300000 0.000000 0
3.400000 0.000000 0
3.500000 0.000000 0
3.600000 0.000000 0
3.700000 0.000000 0
3.800000 0.000000 0
3.900000 0.000000 0
4.000000 0.000000 0
4.100000 0.000000 0
4.200000 0.000000 0
4.300000 0.000000 0
4.400000 0.000000 0
4.500000 0.000000 0
4.600000 0.000000 0
4.700000 0.000000 0
4.800000 0.000000 0
4.900000 0.000000 0
5.000000 0.000000 0
5.100000 0.000000 0
5.200000 0.000000 0
5.300000 0.000000 0
5.400000 0.000000 0
5.500000 0.000000 0
5.600000 0.000000 0
5.700000 0.000000 0
5.800000 0.000000 0
5.900000 0.000000 0
6.000000 0.000000 0
6.100000 0.000000 0
6.200000 0.000000 0
6.300000 0.000000 0
6.400000 0.000000 0
6.500000 0.000000 0
6.600000 0.000000 0
6.700000 0.000000 0
6.800000 0.000000 0
6.900000 0.000000 0
7.000000 0.000000 0
7.100000 0.000000 0
7.200000 0.000000 0
7.300000 0.000000 0
7.400000 0.000000 0
7.500000 0.000000 0
7.600000 0.000000 0
7.700000 0.000000 0
7.800000 0.000000 0
7.900000 0.000000 0
8.000000 0.000000 0
8.100000 0.000000 0
8.200000 0.000000 0
8.300000 0.000000 0
8.400000 0.000000 0
8.500000 0.000000 0
8.600000 0.000000 0
8.700000 0.000000 0
8.800000 0.000000 0
8.900000 0.000000 0
9.000000 0.000000 0
9.100000 0.000000 0
9.200000 0.000000 0
9.300000 0.000000 0
9.400000 0.000000 0
9.500000 0.000000 0
9.600000 0.000000 0
9.700000 0.000000 0
9.800000 0.000000 0
9.900000 0.000000 0
10.000000 0.000000 0
0.000000 0.100000 0
0.100000 0.100000 0
0.200000 0.100000 0
0.300000 0.100000 0
0.400000 0.100000 0
0.500000 0.100000 0
0.600000 0.100000 0
0.700000 0.100000 0
0.800000 0.100000 0
0.900000 0.100000 0
1.000000 0.100000 0
1.100000 0.100000 0
1.200000 0.100000 0
1.300000 0.100000 0
1.400000 0.100000 0
1.500000 0.100000 0
1.600000 0.100000 0
1.700000 0.100000 0
1.800000 0.100000 0
1.900000 0.100000 0
2.000000 0.100000 0
2.100000 0.100000 0
2.200000 0.100000 0
2.300000 0.100000 0
2.400000 0.100000 0
2.500000 0.100000 0
2.600000 0.100000 0
2.700000 0.100000 0
2.800000 0.100000 0
2.900000 0.100000 0
3.000000 0.100000 0
3.100000 0.100000 0
3.200000 0.100000 0
3.300000 0.100000 0
3.400000 0.100000 0
3.500000 0.100000 0
3.600000 0.100000 0
3.700000 0.100000 0
3.800000 0.100000 0
3.900000 0.100000 0
4.000000 0.100000 0
4.100000 0.100000 0
4.200000 0.100000 0
4.300000 0.100000 0
4.400000 0.100000 0
4.500000 0.100000 0
4.600000 0.100000 0
4.700000 0.100000 0
4.800000 0.100000 0
4.900000 0.100000 0
5.000000 0.100000 0
5.100000 0.100000 0
5.200000 0.100000 0
5.300000 0.100000 0
5.400000 0.100000 0
5.500000 0.100000 0
5.600000 0.100000 0
5.700000 0.100000 0
5.800000 0.100000 0
5.900000 0.100000 0
6.000000 0.100000 0
6.100000 0.100000 0
6.200000 0.100000 0
6.300000 0.100000 0
6.400000 0.100000 0
6.500000 0.100000 0
6.600000 0.100000 0
6.700000 0.100000 0
6.800000 0.100000 0
6.900000 0.100000 0
7.000000 0.100000 0
7.100000 0.100000 0
7.200000 0.100000 0
7.300000 0.100000 0
7.400000 0.100000 0
7.500000 0.100000 0
7.600000 0.100000 0
7.700000 0.100000 0
7.800000 0.100000 0
7.900000 0.100000 0
8.000000 0.100000 0
8.100000 0.100000 0
8.200000 0.100000 0
8.300000 0.100000 0
8.400000 0.100000 0
8.500000 0.100000 0
8.600000 0.100000 0
8.700000 0.100000 0
8.800000 0.100000 0
8.900000 0.100000 0
9.000000 0.100000 0
9.100000 0.100000 0
9.200000 0.100000 0
9.300000 0.100000 0
9.400000 0.100000 0
9.500000 0.100000 0
9.600000 0.100000 0
9.700000 0.100000 0
9.800000 0.100000 0
9.900000 0.100000 0
10.000000 0.100000 0
0.000000 0.200000 0
0.100000 0.200000 0
0.200000 0.200000 0
0.300000 0.200000 0
0.400000 0.200000 0
0.500000 0.200000 0
0.600000 0.200000 0
0.700000 0.200000 0
0.800000 0.200000 0
0.900000 0.200000 0
1.000000 0.200000 0
1.100000 0.200000 0
1.200000 0.200000 0
1.300000 0.200000 0
1.400000 0.200000 0
1.500000 0.200000 0
1.600000 0.200000 0
1.700000 0.200000 0
1.800000 0.200000 0
1.900000 0.200000 0
2.000000 0.200000 0
2.100000 0.200000 0
2.200000 0.200000 0
2.300000 0.200000 0
2.400000 0.200000 0
2.500000 0.200000 0
2.600000 0.200000 0
2.700000 0.200000 0
2.800000 0.200000 0
2.900000 0.200000 0
3.000000 0.200000 0
3.100000 0.200000 0
3.200000 0.200000 0
3.300000 0.200000 0
3.400000 0.200000 0
3.500000 0.200000 0
3.600000 0.200000 0
3.700000 0.200000 0
3.800000 0.200000 0
3.900000 0.200000 0
4.000000 0.200000 0
4.100000 0.200000 0
4.200000 0.200000 0
4.300000 0.200000 0
4.400000 0.200000 0
4.500000 0.200000 0
4.600000 0.200000 0
4.700000 0.200000 0
4.800000 0.200000 0
4.900000 0.200000 0
5.000000 0.200000 0
5.100000 0.200000 0
5.200000 0.200000 0
5.300000 0.200000 0
5.400000 0.200000 0
5.500000 0.200000 0
5.600000 0.200000 0
5.700000 0.200000 0
5.800000 0.200000 0
5.900000 0.200000 0
6.000000 0.200000 0
6.100000 0.200000 0
6.200000 0.200000 0
6.300000 0.200000 0
6.400000 0.200000 0
6.500000 0.200000 0
6.600000 0.200000 0
6.700000 0.200000 0
6.800000 0.200000 0
6.900000 0.200000 0
7.000000 0.200000 0
7.100000 0.200000 0
7.200000 0.200000 0
7.300000 0.200000 0
7.400000 0.200000 0
7.500000 0.200000 0
7.600000 0.200000 0
7.700000 0.200000 0
7.800000 0.200000 0
7.900000 0.200000 0
8.000000 0.200000 0
8.100000 0.200000 0
8.200000 0.200000 0
8.300000 0.200000 0
8.400000 0.200000 0
8.500000 0.200000 0
8.600000 0.200000 0
8.700000 0.200000 0
8.800000 0.200000 0
8.900000 0.200000 0
9.000000 0.200000 0
9.100000 0.200000 0
9.200000 0.200000 0
9.300000 0.200000 0
9.400000 0.200000 0
9.500000 0.200000 0
9.600000 0.200000 0
9.700000 0.200000 0
9.800000 0.200000 0
9.900000 0.200000 0
10.000000 0.200000 0
0.000000 0.300000 0
0.100000 0.300000 0
0.200000 0.300000 0
0.300000 0.300000 0
0.400000 0.300000 0
0.500000 0.300000 0
0.600000 0.300000 0
0.700000 0.300000 0
0.800000 0.300000 0
0.900000 0.300000 0
1.000000 0.300000 0
1.100000 0.300000 0
1.200000 0.300000 0
1.300000 0.300000 0
1.400000 0.300000 0
1.500000 0.300000 0
1.600000 0.300000 0
1.700000 0.300000 0
1.800000 0.300000 0
1.900000 0.300000 0
2.000000 0.300000 0
2.100000 0.300000 0
2.200000 0.300000 0
2.300000 0.300000 0
2.400000 0.300000 0
2.500000 0.300000 0
2.600000 0.300000 0
2.700000 0.300000 0
2.800000 0.300000 0
2.900000 0.300000 0
3.000000 0.300000 0
3.100000 0.300000 0
3.200000 0.300000 0
3.300000 0.300000 0
3.400000 0.300000 0
3.500000 0.300000 0
3.600000 0.300000 0
3.700000 0.300000 0
3.800000 0.300000 0
3.900000 0.300000 0
4.000000 0.300000 0
4.100000 0.300000 0
4.200000 0.300000 0
4.300000 0.300000 0
4.400000 0.300000 0
4.500000 0.300000 0
4.600000 0.300000 0
4.700000 0.300000 0
4.800000 0.300000 0
4.900000 0.300000 0
5.000000 0.300000 0
5.100000 0.300000 0
5.200000 0.300000 0
5.300000 0.300000 0
5.400000 0.300000 0
5.500000 0.300000 0
5.600000 0.300000 0
5.700000 0.300000 0
5.800000 0.300000 0
5.900000 0.300000 0
6.000000 0.300000 0
6.100000 0.300000 0
6.200000 0.300000 0
6.300000 0.300000 0
6.400000 0.300000 0
6.500000 0.300000 0
6.600000 0.300000 0
6.700000 0.300000 0
6.800000 0.300000 0
6.900000 0.300000 0
7.000000 0.300000 0
7.100000 0.300000 0
7.200000 0.300000 0
7.300000 0.300000 0
7.400000 0.300000 0
7.500000 0.300000 0
7.600000 0.300000 0
7.700000 0.300000 0
7.800000 0.300000 0
7.900000 0.300000 0
8.000000 0.300000 0
8.100000 0.300000 0
8.200000 0.300000 0
8.300000 0.300000 0
8.400000 0.300000 0
8.500000 0.300000 0
8.600000 0.300000 0
8.700000 0.300000 0
8.800000 0.300000 0
8.900000 0.300000 0
9.000000 0.300000 0
9.100000 0.300000 0
9.200000 0.300000 0
9.300000 0.300000 0
9.400000 0.300000 0
9.500000 0.300000 0
9.600000 0.300000 0
9.700000 0.300000 0
9.800000 0.300000 0
9.900000 0.300000 0
10.000000 0.300000 0
0.000000 0.400000 0
0.100000 0.400000 0
0.200000 0.400000 0
0.300000 0.400000 0
0.400000 0.400000 0
0.500000 0.400000 0
0.600000 0.400000 0
0.700000 0.400000 0
0.800000 0.400000 0
0.900000 0.400000 0
1.000000 0.400000 0
1.100000 0.400000 0
1.200000 0.400000 0
1.300000 0.400000 0
1.400000 0.400000 0
1.500000 0.400000 0
1.600000 0.400000 0
1.700000 0.400000 0
1.800000 0.400000 0
1.900000 0.400000 0
2.000000 0.400000 0
2.100000 0.400000 0
2.200000 0.400000 0
2.300000 0.400000 0
2.400000 0.400000 0
2.500000 0.400000 0
2.600000 0.400000 0
2.700000 0.400000 0
2.800000 0.400000 0
2.900000 0.400000 0
3.000000 0.400000 0
3.100000 0.400000 0
3.200000 0.400000 0
3.300000 0.400000 0
3.400000 0.400000 0
3.500000 0.400000 0
3.600000 0.400000 0
3.700000 0.400000 0
3.800000 0.400000 0
3.900000 0.400000 0
4.000000 0.400000 0
4.100000 0.400000 0
4.200000 0.400000 0
4.300000 0.400000 0
4.400000 0.400000 0
4.500000 0.400000 0
4.600000 0.400000 0
4.700000 0.400000 0
4.800000 0.400000 0
4.900000 0.400000 0
5.000000 0.400000 0
5.100000 0.400000 0
5.200000 0.400000 0
5.300000 0.400000 0
5.400000 0.400000 0
5.500000 0.400000 0
5.600000 0.400000 0
5.700000 0.400000 0
5.800000 0.400000 0
5.900000 0.400000 0
6.000000 0.400000 0
6.100000 0.400000 0
6.200000 0.400000 0
6.300000 0.400000 0
6.400000 0.400000 0
6.500000 0.400000 0
6.600000 0.400000 0
6.700000 0.400000 0
6.800000 0.400000 0
6.900000 0.400000 0
7.000000 0.400000 0
7.100000 0.400000 0
7.200000 0.400000 0
7.300000 0.400000 0
7.400000 0.400000 0
7.500000 0.400000 0
7.600000 0.400000 0
7.700000 0.400000 0
7.800000 0.400000 0
7.900000 0.400000 0
8.000000 0.400000 0
8.100000 0.400000 0
8.200000 0.400000 0
8.300000 0.400000 0
8.400000 0.400000 0
8.500000 0.400000 0
8.600000 0.400000 0
[...]
POINT_DATA 2121 

VECTORS velocity float
0.500000 0.000000 0
0.000004 0.000000 0
0.000014 0.000000 0
0.000030 0.000000 0
0.000051 0.000000 0
0.000075 0.000000 0
0.000098 0.000000 0
0.000117 0.000000 0
0.000126 0.000000 0
0.000115 0.000000 0
0.000079 0.000000 0
0.000010 0.000000 0
-0.000097 0.000000 0
-0.000245 0.000000 0
-0.000434 0.000000 0
-0.000655 0.000000 0
-0.000893 0.000000 0
-0.001115 0.000000 0
-0.001272 0.000000 0
-0.001308 0.000000 0
-0.001176 0.000000 0
-0.000857 0.000000 0
-0.000377 0.000000 0
0.000210 0.000000 0
0.000834 0.000000 0
0.001432 0.000000 0
0.001951 0.000000 0
0.002353 0.000000 0
0.002613 0.000000 0
0.002714 0.000000 0
0.002645 0.000000 0
0.002401 0.000000 0
0.001979 0.000000 0
0.001382 0.000000 0
0.000608 0.000000 0
-0.000347 0.000000 0
-0.001473 0.000000 0
-0.002668 0.000000 0
-0.003807 0.000000 0
-0.004735 0.000000 0
-0.005278 0.000000 0
-0.005283 0.000000 0
-0.004681 0.000000 0
-0.003534 0.000000 0
-0.002041 0.000000 0
-0.000475 0.000000 0
0.001011 0.000000 0
0.002319 0.000000 0
0.003386 0.000000 0
0.004177 0.000000 0
0.004687 0.000000 0
0.004927 0.000000 0
0.004916 0.000000 0
0.004675 0.000000 0
0.004215 0.000000 0
0.003543 0.000000 0
0.002657 0.000000 0
0.001562 0.000000 0
0.000293 0.000000 0
-0.001019 0.000000 0
-0.002237 0.000000 0
-0.003333 0.000000 0
-0.004294 0.000000 0
-0.005100 0.000000 0
-0.005709 0.000000 0
-0.006051 0.000000 0
-0.006027 0.000000 0
-0.005529 0.000000 0
-0.004499 0.000000 0
-0.002994 0.000000 0
-0.001227 0.000000 0
0.000556 0.000000 0
0.002257 0.000000 0
0.003774 0.000000 0
0.005009 0.000000 0
0.005875 0.000000 0
0.006307 0.000000 0
0.006261 0.000000 0
0.005731 0.000000 0
0.004753 0.000000 0
0.003418 0.000000 0
0.001870 0.000000 0
0.000300 0.000000 0
-0.001037 0.000000 0
-0.002040 0.000000 0
-0.002787 0.000000 0
-0.003364 0.000000 0
-0.003839 0.000000 0
-0.004262 0.000000 0
-0.004653 0.000000 0
-0.004997 0.000000 0
-0.005248 0.000000 0
-0.005334 0.000000 0
-0.005172 0.000000 0
-0.004703 0.000000 0
-0.003923 0.000000 0
-0.002908 0.000000 0
-0.001804 0.000000 0
-0.000743 0.000000 0
0.000200 0.000000 0
0.000912 0.000000 0
1.000000 -0.000003 0
1.002645 -0.004747 0
1.010777 -0.010255 0
1.024753 -0.016200 0
1.044951 -0.022369 0
1.071583 -0.028379 0
1.104385 -0.033566 0
1.142210 -0.037018 0
1.182740 -0.037825 0
1.222413 -0.035681 0
1.258014 -0.031189 0
1.287638 -0.025407 0
1.310683 -0.019354 0
1.327484 -0.013795 0
1.338981 -0.009216 0
1.346439 -0.005849 0
1.351236 -0.003697 0
1.354636 -0.002539 0
1.357563 -0.001936 0
1.360361 -0.001311 0
1.362642 -0.000086 0
1.363376 0.002134 0
1.361265 0.005415 0
1.355188 0.009508 0
1.344478 0.013989 0
1.329000 0.018397 0
1.309097 0.022331 0
1.285476 0.025485 0
1.259088 0.027648 0
1.231041 0.028683 0
1.202539 0.028512 0
1.174832 0.027094 0
1.149190 0.024416 0
1.126874 0.020480 0
1.109117 0.015271 0
1.097108 0.008747 0
1.091947 0.001006 0
1.094562 -0.007428 0
1.105495 -0.015701 0
1.124530 -0.022807 0
1.150332 -0.027626 0
1.180340 -0.029166 0
1.210988 -0.026902 0
1.238259 -0.021060 0
1.258521 -0.012691 0
1.269386 -0.003313 0
1.270165 0.005901 0
1.261477 0.014285 0
1.244573 0.021368 0
1.221072 0.026874 0
1.192745 0.030693 0
1.161367 0.032836 0
1.128637 0.033375 0
1.096148 0.032391 0
1.065384 0.029941 0
1.037738 0.026040 0
1.014481 0.020680 0
0.996706 0.013897 0
0.985209 0.005951 0
0.980421 -0.002391 0
0.982449 -0.010267 0
0.991079 -0.017276 0
1.005884 -0.023286 0
1.026256 -0.028181 0
1.051426 -0.031769 0
1.080418 -0.033723 0
1.111913 -0.033564 0
1.144057 -0.030770 0
1.174379 -0.025036 0
1.199938 -0.016639 0
1.217753 -0.006617 0
1.225521 0.003785 0
1.222496 0.013761 0
1.209376 0.022766 0
1.187490 0.030253 0
1.158683 0.035719 0
1.125206 0.038753 0
1.089591 0.039060 0
1.054481 0.036515 0
1.022406 0.031242 0
0.995488 0.023692 0
0.975139 0.014673 0
0.961882 0.005341 0
0.955442 -0.002894 0
0.955076 -0.009219 0
0.959701 -0.013807 0
0.968285 -0.017137 0
0.980059 -0.019646 0
0.994538 -0.021651 0
1.011477 -0.023310 0
1.030742 -0.024597 0
1.052126 -0.025303 0
1.075157 -0.025077 0
1.098974 -0.023529 0
1.122307 -0.020388 0
1.143592 -0.015693 0
1.161209 -0.009945 0
1.173850 -0.004086 0
1.180998 0.000814 0
1.183361 0.001628 0
1.185241 0.001071 0
1.000000 -0.000006 0
1.002965 -0.010775 0
1.011567 -0.022113 0
1.026113 -0.034180 0
1.047207 -0.046839 0
1.075490 -0.059446 0
1.111248 -0.070641 0
1.153714 -0.078371 0
1.200476 -0.080218 0
1.245796 -0.075285 0
1.285120 -0.065233 0
1.316538 -0.052673 0
1.339966 -0.039848 0
1.356258 -0.028299 0
1.366763 -0.018956 0
1.373095 -0.012258 0
1.376949 -0.008200 0
1.379922 -0.006330 0
1.383265 -0.005727 0
1.387539 -0.005082 0
1.392234 -0.003017 0
1.395803 0.001374 0
1.396353 0.008183 0
1.392384 0.016781 0
1.383112 0.026181 0
1.368474 0.035372 0
1.348964 0.043513 0
1.325439 0.049998 0
1.298961 0.054422 0
1.270705 0.056535 0
1.241905 0.056195 0
1.213818 0.053333 0
1.187694 0.047943 0
1.164749 0.040060 0
1.146134 0.029755 0
1.132914 0.017161 0
1.126072 0.002538 0
1.126612 -0.013553 0
1.135462 -0.029971 0
1.152893 -0.044838 0
1.178096 -0.055812 0
1.209095 -0.060659 0
1.242819 -0.057923 0
1.275250 -0.047536 0
1.301917 -0.031131 0
1.318960 -0.011649 0
1.324521 0.007905 0
1.319327 0.025587 0
1.305041 0.040399 0
1.283615 0.051822 0
1.257044 0.059698 0
1.227222 0.064100 0
1.195879 0.065212 0
1.164555 0.063245 0
1.134606 0.058401 0
1.107190 0.050894 0
1.083223 0.041022 0
1.063320 0.029264 0
1.047776 0.016276 0
1.036697 0.002751 0
1.030373 -0.010666 0
1.029077 -0.023441 0
1.032896 -0.035182 0
1.041829 -0.045546 0
1.055880 -0.054166 0
1.075078 -0.060490 0
1.099229 -0.063641 0
1.127558 -0.062469 0
1.158449 -0.055884 0
1.189358 -0.043377 0
1.216904 -0.025587 0
1.237300 -0.004748 0
1.247614 0.016140 0
1.247378 0.035001 0
1.237723 0.050687 0
1.220306 0.062277 0
1.197143 0.069084 0
1.170414 0.070717 0
1.142263 0.067174 0
1.114593 0.058980 0
1.088877 0.047252 0
1.066060 0.033588 0
1.046611 0.019676 0
1.030765 0.006782 0
1.018862 -0.004285 0
1.010955 -0.013238 0
1.006751 -0.020390 0
1.005946 -0.026287 0
1.008444 -0.031455 0
1.014404 -0.036243 0
1.024132 -0.040690 0
1.037842 -0.044457 0
1.055425 -0.046891 0
1.076326 -0.047194 0
1.099549 -0.044664 0
1.123722 -0.038949 0
1.147202 -0.030305 0
1.168217 -0.019836 0
1.185194 -0.009559 0
1.197304 -0.004290 0
1.204041 -0.002399 0
1.000000 -0.000010 0
1.002567 -0.016317 0
1.010357 -0.033409 0
1.023964 -0.051846 0
1.044490 -0.071753 0
1.073433 -0.092428 0
1.112295 -0.111797 0
1.161444 -0.126252 0
1.219416 -0.129910 0
1.273676 -0.120324 0
1.317143 -0.101929 0
1.348950 -0.080251 0
1.370505 -0.059072 0
1.383651 -0.040593 0
1.390355 -0.026056 0
1.392707 -0.016039 0
1.392847 -0.010526 0
1.392896 -0.008855 0
1.394761 -0.009555 0
1.399620 -0.010282 0
1.406980 -0.008353 0
1.414311 -0.001988 0
1.418233 0.008829 0
1.416445 0.022743 0
1.408026 0.037894 0
1.393134 0.052540 0
1.372600 0.065360 0
1.347565 0.075482 0
1.319276 0.082375 0
1.289006 0.085733 0
1.258031 0.085393 0
1.227619 0.081298 0
1.199002 0.073480 0
1.173352 0.062037 0
1.151751 0.047104 0
1.135187 0.028808 0
1.124570 0.007308 0
1.120813 -0.016817 0
1.124830 -0.041982 0
1.137071 -0.065442 0
1.157259 -0.083829 0
1.184624 -0.093891 0
1.217719 -0.093059 0
1.253776 -0.080160 0
1.288282 -0.056404 0
1.315548 -0.025920 0
1.330648 0.005531 0
1.332413 0.033762 0
1.323046 0.057077 0
1.305072 0.074868 0
1.280928 0.087082 0
1.252793 0.093997 0
1.222524 0.096039 0
1.191651 0.093659 0
1.161405 0.087301 0
1.132750 0.077419 0
1.106410 0.064546 0
1.082899 0.049340 0
1.062547 0.032571 0
1.045478 0.015009 0
1.031557 -0.002649 0
1.020603 -0.019800 0
1.012741 -0.036039 0
1.008673 -0.051165 0
1.009570 -0.065019 0
1.016854 -0.077072 0
1.031495 -0.086045 0
1.053441 -0.089992 0
1.081494 -0.086838 0
1.113492 -0.075095 0
1.146527 -0.054562 0
1.177083 -0.026928 0
1.201160 0.003680 0
1.215590 0.032655 0
1.220262 0.057322 0
1.216261 0.076296 0
1.205084 0.088642 0
1.188394 0.093936 0
1.167829 0.092330 0
1.144871 0.084621 0
1.120793 0.072217 0
1.096707 0.056931 0
1.073597 0.040626 0
1.052234 0.024844 0
1.033012 0.010580 0
1.016152 -0.001707 0
1.001767 -0.012140 0
0.990133 -0.021352 0
0.981953 -0.030122 0
0.978170 -0.039011 0
0.979651 -0.048048 0
0.986837 -0.056609 0
0.999557 -0.063574 0
1.017076 -0.067666 0
1.038274 -0.067797 0
1.061817 -0.063359 0
1.086272 -0.054452 0
1.110140 -0.042090 0
1.131835 -0.028286 0
1.149691 -0.017232 0
1.160175 -0.011127 0
1.000000 -0.000014 0
1.002037 -0.021138 0
1.008368 -0.043516 0
1.019875 -0.068321 0
1.038278 -0.096316 0
1.066325 -0.127258 0
1.107763 -0.158659 0
1.165881 -0.185495 0
1.244764 -0.192450 0
1.310818 -0.173012 0
1.355489 -0.140507 0
1.383325 -0.106035 0
1.399075 -0.074550 0
1.405735 -0.048152 0
1.405668 -0.028016 0
1.401232 -0.014752 0
1.394808 -0.008390 0
1.388976 -0.008245 0
1.386595 -0.012454 0
1.390400 -0.017304 0
1.400804 -0.017711 0
1.414262 -0.009882 0
1.424475 0.006045 0
1.426772 0.026983 0
1.420202 0.049487 0
1.405494 0.070792 0
1.384102 0.089076 0
1.357580 0.103316 0
1.327378 0.112975 0
1.294853 0.117774 0
1.261316 0.117575 0
1.228063 0.112358 0
1.196349 0.102207 0
1.167347 0.087308 0
1.142089 0.067919 0
1.121355 0.044342 0
1.105404 0.016912 0
1.093801 -0.013813 0
1.086420 -0.046228 0
1.084382 -0.077268 0
1.089124 -0.103367 0
1.102745 -0.121121 0
1.126848 -0.127077 0
1.160947 -0.118102 0
1.201646 -0.092906 0
1.242669 -0.054017 0
1.275912 -0.008963 0
1.294494 0.033186 0
1.298374 0.067737 0
1.290606 0.093937 0
1.274095 0.111973 0
1.251432 0.122500 0
1.224806 0.126350 0
1.196003 0.124359 0
1.166440 0.117298 0
1.137214 0.105886 0
1.109151 0.090871 0
1.082791 0.073123 0
1.058293 0.053695 0
1.035310 0.033740 0
1.013072 0.014208 0
0.990974 -0.004626 0
0.969495 -0.023253 0
0.950960 -0.042376 0
0.938953 -0.062348 0
0.936363 -0.082416 0
0.944244 -0.100229 0
0.961897 -0.112469 0
0.987573 -0.115938 0
1.019043 -0.108412 0
1.053856 -0.089180 0
1.089343 -0.059383 0
1.122401 -0.022368 0
1.149057 0.015898 0
1.166607 0.050013 0
1.175184 0.077452 0
1.175612 0.096948 0
1.169023 0.107966 0
1.156650 0.110692 0
1.139719 0.106011 0
1.119412 0.095408 0
1.096854 0.080776 0
1.073050 0.064141 0
1.048776 0.047359 0
1.024547 0.031788 0
1.000828 0.017997 0
0.978437 0.005619 0
0.958662 -0.006483 0
0.943118 -0.019502 0
0.933444 -0.033952 0
0.930684 -0.049368 0
0.934927 -0.064373 0
0.945468 -0.077140 0
0.961153 -0.085921 0
0.980673 -0.089416 0
1.002710 -0.086957 0
1.025977 -0.078638 0
1.049180 -0.065409 0
1.070900 -0.049119 0
1.089498 -0.032640 0
1.101157 -0.022465 0
1.000000 -0.000017 0
1.001207 -0.024694 0
1.005070 -0.051254 0
1.012577 -0.081763 0
1.025880 -0.118211 0
1.049022 -0.161921 0
1.089034 -0.211358 0
1.155590 -0.263255 0
1.271138 -0.274848 0
1.343208 -0.231050 0
1.375400 -0.174437 0
1.388638 -0.123838 0
1.392078 -0.081485 0
1.388217 -0.047190 0
1.378562 -0.021556 0
1.364325 -0.005179 0
1.347878 0.001729 0
1.332344 -0.000644 0
1.320921 -0.010981 0
1.317997 -0.024495 0
1.327677 -0.032218 0
1.347693 -0.025663 0
1.369363 -0.003685 0
1.381509 0.027011 0
1.381269 0.059166 0
1.370773 0.088634 0
1.352499 0.113268 0
1.328389 0.132200 0
1.299884 0.145096 0
1.268217 0.151789 0
1.234602 0.152177 0
1.200298 0.146262 0
1.166544 0.134194 0
1.134444 0.116295 0
1.104811 0.093095 0
1.077986 0.065494 0
1.053329 0.034863 0
1.028649 0.002166 0
1.001479 -0.032563 0
0.973963 -0.068147 0
0.954282 -0.102195 0
0.949670 -0.131616 0
0.963010 -0.151263 0
0.993238 -0.154961 0
1.036768 -0.138128 0
1.088161 -0.100188 0
1.140053 -0.046297 0
1.183088 0.011296 0
1.209919 0.060962 0
1.221754 0.099144 0
1.221447 0.126252 0
1.211671 0.143282 0
1.194798 0.151464 0
1.172884 0.152022 0
1.147654 0.146086 0
1.120499 0.134704 0
1.092414 0.118966 0
1.063805 0.100196 0
1.034262 0.080050 0
1.002742 0.060229 0
0.968598 0.041687 0
0.933061 0.023775 0
0.899703 0.003974 0
0.873207 -0.020624 0
0.857615 -0.050423 0
0.854441 -0.082364 0
0.862600 -0.111581 0
0.879978 -0.133323 0
0.904489 -0.143985 0
0.934310 -0.141381 0
0.967752 -0.124864 0
1.003075 -0.095474 0
1.038317 -0.056036 0
1.070935 -0.011553 0
1.097142 0.031193 0
1.115199 0.067287 0
1.125103 0.094799 0
1.127356 0.112893 0
1.122722 0.121628 0
1.112086 0.121854 0
1.096354 0.115076 0
1.076375 0.103285 0
1.052871 0.088697 0
1.026496 0.073340 0
0.998097 0.058521 0
0.969090 0.044395 0
0.941631 0.030018 0
0.918253 0.013960 0
0.901087 -0.004912 0
0.891319 -0.026585 0
0.889095 -0.049539 0
0.893654 -0.071401 0
0.903794 -0.089808 0
0.918257 -0.102878 0
0.935876 -0.109361 0
0.955586 -0.108670 0
0.976352 -0.100929 0
0.997096 -0.087020 0
1.016584 -0.068611 0
1.033364 -0.047494 0
1.044423 -0.034000 0
1.000000 -0.000021 0
1.000020 -0.026217 0
1.000222 -0.054894 0
1.001295 -0.089139 0
1.005060 -0.132767 0
1.015788 -0.190418 0
1.043200 -0.265231 0
1.107149 -0.367601 0
1.272530 -0.380070 0
1.321356 -0.277275 0
1.309849 -0.185937 0
1.293200 -0.122715 0
1.278885 -0.074133 0
1.263566 -0.034640 0
1.242571 -0.004126 0
1.215214 0.015932 0
1.184487 0.023590 0
1.154534 0.018709 0
1.129262 0.001889 0
1.112147 -0.024064 0
1.110529 -0.047411 0
1.130253 -0.051573 0
1.166538 -0.027776 0
1.203792 0.015072 0
1.225377 0.060217 0
1.232410 0.099556 0
1.229635 0.131455 0
1.219211 0.155925 0
1.202215 0.173142 0
1.179543 0.183050 0
1.152262 0.185490 0
1.121640 0.180413 0
1.088882 0.168059 0
1.054468 0.149040 0
1.017216 0.124376 0
0.974324 0.095824 0
0.924009 0.066249 0
0.869300 0.038037 0
0.817965 0.008456 0
0.778470 -0.030075 0
0.757759 -0.079077 0
0.757348 -0.129850 0
0.774927 -0.170646 0
0.807551 -0.191863 0
0.852504 -0.187832 0
0.906807 -0.157305 0
0.966496 -0.103893 0
1.025734 -0.036684 0
1.075059 0.029068 0
1.108564 0.082405 0
1.127825 0.122053 0
1.134916 0.149146 0
1.131891 0.165133 0
1.120685 0.171500 0
1.103008 0.169679 0
1.080177 0.161122 0
1.052859 0.147562 0
1.020860 0.131273 0
0.983452 0.114757 0
0.940675 0.099403 0
0.895080 0.083888 0
0.852189 0.064268 0
0.818543 0.036601 0
0.798301 -0.000288 0
0.791535 -0.043583 0
0.795576 -0.087403 0
0.807376 -0.125768 0
0.824825 -0.154360 0
0.846797 -0.170272 0
0.872676 -0.171678 0
0.901848 -0.157947 0
0.933419 -0.129949 0
0.966141 -0.090230 0
0.998416 -0.042930 0
1.027758 0.005746 0
1.050958 0.049487 0
1.067002 0.084788 0
1.075682 0.110344 0
1.077193 0.125957 0
1.071938 0.132373 0
1.060382 0.131113 0
1.042992 0.124253 0
1.020299 0.114014 0
0.993185 0.102127 0
0.963263 0.089188 0
0.933062 0.074457 0
0.905681 0.056450 0
0.883973 0.034056 0
0.869699 0.007426 0
0.863047 -0.021965 0
0.863078 -0.051707 0
0.868456 -0.079078 0
0.877926 -0.101747 0
0.890479 -0.118007 0
0.905316 -0.126749 0
0.921741 -0.127438 0
0.939036 -0.120151 0
0.956355 -0.105644 0
0.972660 -0.085391 0
0.986704 -0.060482 0
0.996258 -0.044429 0
1.000000 -0.000024 0
0.998578 -0.024927 0
0.994213 -0.052536 0
0.986736 -0.086609 0
0.976273 -0.132711 0
0.964337 -0.200067 0
0.957339 -0.302723 0
0.977637 -0.492587 0
1.138939 -0.489056 0
1.127591 -0.268371 0
1.026563 -0.146283 0
0.972831 -0.092877 0
0.945866 -0.051855 0
0.924337 -0.010879 0
0.890133 0.026795 0
0.843418 0.052902 0
0.788258 0.062406 0
0.731906 0.054578 0
0.685243 0.031402 0
0.659634 -0.005766 0
0.664970 -0.050329 0
0.702422 -0.081677 0
0.764798 -0.077229 0
0.842038 -0.031833 0
0.914607 0.030542 0
0.965673 0.084370 0
0.997752 0.126461 0
1.016292 0.159614 0
1.022800 0.184759 0
1.018162 0.201737 0
1.003286 0.210076 0
0.978837 0.209640 0
0.944689 0.201364 0
0.899668 0.187960 0
0.842558 0.173239 0
0.774846 0.158701 0
0.703600 0.139886 0
0.641418 0.108208 0
0.601281 0.058264 0
0.588098 -0.007943 0
0.595177 -0.081074 0
0.613884 -0.148786 0
0.639754 -0.201469 0
0.672200 -0.232541 0
0.712284 -0.237387 0
0.760610 -0.214183 0
0.816135 -0.165227 0
0.875920 -0.097271 0
0.934668 -0.021872 0
0.983087 0.046374 0
1.017643 0.099896 0
1.039258 0.139212 0
1.049125 0.165692 0
1.048539 0.180901 0
1.038654 0.186590 0
1.020182 0.184850 0
0.993226 0.178280 0
0.957654 0.169601 0
0.914410 0.160234 0
0.867141 0.148600 0
0.822408 0.130172 0
0.787328 0.100312 0
0.766226 0.057862 0
0.759143 0.006383 0
0.762591 -0.047700 0
0.772089 -0.098207 0
0.784771 -0.140831 0
0.799490 -0.172746 0
0.816251 -0.191838 0
0.835582 -0.196434 0
0.857932 -0.185609 0
0.883226 -0.159769 0
0.910736 -0.121035 0
0.939224 -0.073173 0
0.967074 -0.021351 0
0.991507 0.028041 0
1.010372 0.070072 0
1.022789 0.102697 0
1.028375 0.125368 0
1.027027 0.138660 0
1.018802 0.144017 0
1.003960 0.143364 0
0.983190 0.138500 0
0.957948 0.130372 0
0.930632 0.118639 0
0.904298 0.101973 0
0.881906 0.079103 0
0.865495 0.049938 0
0.855791 0.016011 0
0.852364 -0.019966 0
0.853986 -0.054951 0
0.859313 -0.086252 0
0.867273 -0.111832 0
0.877134 -0.130269 0
0.888428 -0.140625 0
0.900813 -0.142391 0
0.913913 -0.135543 0
0.927180 -0.120646 0
0.939816 -0.098960 0
0.950789 -0.071092 0
0.958378 -0.053119 0
1.000000 -0.000026 0
0.997174 -0.020444 0
0.988298 -0.043059 0
0.971997 -0.071206 0
0.945602 -0.110376 0
0.904325 -0.171489 0
0.839386 -0.278533 0
0.735245 -0.549204 0
0.551117 -0.530027 0
0.000237 -0.164902 0
0.404668 -0.031179 0
0.338853 -0.042021 0
0.340200 -0.025643 0
0.351979 0.021090 0
0.339506 0.076792 0
0.298756 0.117805 0
0.243697 0.135099 0
0.190443 0.121720 0
0.157086 0.074157 0
0.161089 -0.003796 0
0.201809 -0.090204 0
0.266045 -0.151406 0
0.345448 -0.167397 0
0.440286 -0.134743 0
0.545958 -0.063425 0
0.642721 0.016405 0
0.715105 0.080830 0
0.764572 0.130872 0
0.795251 0.171267 0
0.808295 0.202560 0
0.804146 0.224812 0
0.782661 0.239008 0
0.743601 0.247227 0
0.688397 0.251171 0
0.623067 0.249198 0
0.559657 0.234782 0
0.512620 0.199676 0
0.491253 0.140353 0
0.495189 0.061773 0
0.516226 -0.023972 0
0.542111 -0.104865 0
0.566202 -0.174430 0
0.587740 -0.228965 0
0.609306 -0.264396 0
0.634993 -0.276245 0
0.668495 -0.261159 0
0.711303 -0.219207 0
0.761983 -0.155221 0
0.816854 -0.078103 0
0.869666 -0.000574 0
0.912269 0.065877 0
0.942871 0.117660 0
0.961536 0.155848 0
0.968639 0.181968 0
0.964536 0.198033 0
0.949418 0.206547 0
0.923627 0.210087 0
0.888663 0.210087 0
0.848443 0.205269 0
0.809423 0.191404 0
0.778558 0.163699 0
0.760194 0.120449 0
0.754485 0.064785 0
0.758447 0.003346 0
0.767903 -0.056530 0
0.779261 -0.109584 0
0.790468 -0.153170 0
0.800882 -0.185841 0
0.811004 -0.206365 0
0.822100 -0.213360 0
0.835609 -0.205592 0
0.852464 -0.182755 0
0.872658 -0.146230 0
0.895282 -0.099271 0
0.918865 -0.046539 0
0.941441 0.006186 0
0.960336 0.053503 0
0.974066 0.092338 0
0.981753 0.121715 0
0.982895 0.141943 0
0.977325 0.154177 0
0.965347 0.159862 0
0.948003 0.160023 0
0.927243 0.154683 0
0.905755 0.142836 0
0.886349 0.123181 0
0.871175 0.095251 0
0.861241 0.060169 0
0.856473 0.020556 0
0.856110 -0.020161 0
0.859010 -0.058655 0
0.864030 -0.092363 0
0.870292 -0.119567 0
0.877255 -0.139161 0
0.884689 -0.150427 0
0.892576 -0.152921 0
0.900925 -0.146516 0
0.909586 -0.131545 0
0.918107 -0.108998 0
0.925728 -0.079041 0
0.931043 -0.059715 0
1.000000 -0.000027 0
0.996209 -0.013240 0
0.984238 -0.027366 0
0.961891 -0.043920 0
0.924555 -0.065045 0
0.862990 -0.093856 0
0.757488 -0.133647 0
0.564643 -0.204321 0
0.072722 -0.000500 0
-0.534775 0.126956 0
0.000000 -0.000054 0
-0.029909 -0.038893 0
-0.049293 -0.064983 0
-0.061945 -0.010186 0
-0.073985 0.080016 0
-0.095451 0.148709 0
-0.120732 0.170716 0
-0.134260 0.141185 0
-0.120302 0.060751 0
-0.076037 -0.050494 0
-0.021247 -0.155290 0
0.036345 -0.225321 0
0.099945 -0.251476 0
0.174517 -0.232349 0
0.263466 -0.171899 0
0.362689 -0.084782 0
0.453258 0.004604 0
0.520957 0.079462 0
0.566037 0.141032 0
0.590181 0.192838 0
0.593814 0.235708 0
0.577796 0.270184 0
0.545402 0.295626 0
0.504307 0.308494 0
0.466640 0.301979 0
0.445168 0.269147 0
0.447140 0.208288 0
0.470880 0.125637 0
0.507900 0.033289 0
0.545445 -0.054867 0
0.575803 -0.131052 0
0.596795 -0.194418 0
0.608947 -0.244576 0
0.615279 -0.279797 0
0.621061 -0.296580 0
0.632551 -0.290497 0
0.654618 -0.258718 0
0.688514 -0.202825 0
0.731548 -0.129559 0
0.778618 -0.049045 0
0.822042 0.026686 0
0.855883 0.089942 0
0.878720 0.139920 0
0.890040 0.177898 0
0.889675 0.205808 0
0.877943 0.225757 0
0.856315 0.239034 0
0.828297 0.244783 0
0.799585 0.239473 0
0.776589 0.218484 0
0.763825 0.179400 0
0.762172 0.124384 0