# vtk DataFile Version 2.0
generated by CFD-lab course output (written by Tobias Neckel) 
ASCII

DATASET STRUCTURED_GRID
DIMENSIONS  101 21 1 
POINTS 2121 float

0.000000 0.000000 0
0.100000 0.000000 0
0.200000 0.000000 0
0.300000 0.000000 0
0.400000 0.000000 0
0.500000 0.000000 0
0.600000 0.000000 0
0.700000 0.000000 0
0.800000 0.000000 0
0.900000 0.000000 0
1.000000 0.000000 0
1.100000 0.000000 0
1.200000 0.000000 0
1.300000 0.000000 0
1.400000 0.000000 0
1.500000 0.000000 0
1.600000 0.000000 0
1.700000 0.000000 0
1.800000 0.000000 0
1.900000 0.000000 0
2.000000 0.000000 0
2.100000 0.000000 0
2.200000 0.000000 0
2.300000 0.000000 0
2.400000 0.000000 0
2.500000 0.000000 0
2.600000 0.000000 0
2.700000 0.000000 0
2.800000 0.000000 0
2.900000 0.000000 0
3.000000 0.000000 0
3.100000 0.000000 0
3.200000 0.000000 0
3.300000 0.000000 0
3.400000 0.000000 0
3.500000 0.000000 0
3.600000 0.000000 0
3.700000 0.000000 0
3.800000 0.000000 0
3.900000 0.000000 0
4.000000 0.000000 0
4.100000 0.000000 0
4.200000 0.000000 0
4.300000 0.000000 0
4.400000 0.000000 0
4.500000 0.000000 0
4.600000 0.000000 0
4.700000 0.000000 0
4.800000 0.000000 0
4.900000 0.000000 0
5.000000 0.000000 0
5.100000 0.000000 0
5.200000 0.000000 0
5.300000 0.000000 0
5.400000 0.000000 0
5.500000 0.000000 0
5.600000 0.000000 0
5.700000 0.000000 0
5.800000 0.000000 0
5.900000 0.000000 0
6.000000 0.000000 0
6.100000 0.000000 0
6.200000 0.000000 0
6.300000 0.000000 0
6.400000 0.000000 0
6.500000 0.000000 0
6.600000 0.000000 0
6.700000 0.000000 0
6.800000 0.000000 0
6.900000 0.000000 0
7.000000 0.000000 0
7.100000 0.000000 0
7.200000 0.000000 0
7.300000 0.000000 0
7.400000 0.000000 0
7.500000 0.000000 0
7.600000 0.000000 0
7.700000 0.000000 0
7.800000 0.000000 0
7.900000 0.000000 0
8.000000 0.000000 0
8.100000 0.000000 0
8.200000 0.000000 0
8.300000 0.000000 0
8.400000 0.000000 0
8.500000 0.000000 0
8.600000 0.000000 0
8.700000 0.000000 0
8.800000 0.000000 0
8.900000 0.000000 0
9.000000 0.000000 0
9.100000 0.000000 0
9.200000 0.000000 0
9.300000 0.000000 0
9.400000 0.000000 0
9.500000 0.000000 0
9.600000 0.000000 0
9.700000 0.000000 0
9.800000 0.000000 0
9.900000 0.000000 0
10.000000 0.000000 0
0.000000 0.100000 0
0.100000 0.100000 0
0.200000 0.100000 0
0.300000 0.100000 0
0.400000 0.100000 0
0.500000 0.100000 0
0.600000 0.100000 0
0.700000 0.100000 0
0.800000 0.100000 0
0.900000 0.100000 0
1.000000 0.100000 0
1.100000 0.100000 0
1.200000 0.100000 0
1.300000 0.100000 0
1.400000 0.100000 0
1.500000 0.100000 0
1.600000 0.100000 0
1.700000 0.100000 0
1.800000 0.100000 0
1.900000 0.100000 0
2.000000 0.100000 0
2.100000 0.100000 0
2.200000 0.100000 0
2.300000 0.100000 0
2.400000 0.100000 0
2.500000 0.100000 0
2.600000 0.100000 0
2.700000 0.100000 0
2.800000 0.100000 0
2.900000 0.100000 0
3.000000 0.100000 0
3.100000 0.100000 0
3.200000 0.100000 0
3.300000 0.100000 0
3.400000 0.100000 0
3.500000 0.100000 0
3.600000 0.100000 0
3.700000 0.100000 0
3.800000 0.100000 0
3.900000 0.100000 0
4.000000 0.100000 0
4.100000 0.100000 0
4.200000 0.100000 0
4.300000 0.100000 0
4.400000 0.100000 0
4.500000 0.100000 0
4.600000 0.100000 0
4.700000 0.100000 0
4.800000 0.100000 0
4.900000 0.100000 0
5.000000 0.100000 0
5.100000 0.100000 0
5.200000 0.100000 0
5.300000 0.100000 0
5.400000 0.100000 0
5.500000 0.100000 0
5.600000 0.100000 0
5.700000 0.100000 0
5.800000 0.100000 0
5.900000 0.100000 0
6.000000 0.100000 0
6.100000 0.100000 0
6.200000 0.100000 0
6.300000 0.100000 0
6.400000 0.100000 0
6.500000 0.100000 0
6.600000 0.100000 0
6.700000 0.100000 0
6.800000 0.100000 0
6.900000 0.100000 0
7.000000 0.100000 0
7.100000 0.100000 0
7.200000 0.100000 0
7.300000 0.100000 0
7.400000 0.100000 0
7.500000 0.100000 0
7.600000 0.100000 0
7.700000 0.100000 0
7.800000 0.100000 0
7.900000 0.100000 0
8.000000 0.100000 0
8.100000 0.100000 0
8.200000 0.100000 0
8.300000 0.100000 0
8.400000 0.100000 0
8.500000 0.100000 0
8.600000 0.100000 0
8.700000 0.100000 0
8.800000 0.100000 0
8.900000 0.100000 0
9.000000 0.100000 0
9.100000 0.100000 0
9.200000 0.100000 0
9.300000 0.100000 0
9.400000 0.100000 0
9.500000 0.100000 0
9.600000 0.100000 0
9.700000 0.100000 0
9.800000 0.100000 0
9.900000 0.100000 0
10.000000 0.100000 0
0.000000 0.200000 0
0.100000 0.200000 0
0.200000 0.200000 0
0.300000 0.200000 0
0.400000 0.200000 0
0.500000 0.200000 0
0.600000 0.200000 0
0.700000 0.200000 0
0.800000 0.200000 0
0.900000 0.200000 0
1.000000 0.200000 0
1.100000 0.200000 0
1.200000 0.200000 0
1.300000 0.200000 0
1.400000 0.200000 0
1.500000 0.200000 0
1.600000 0.200000 0
1.700000 0.200000 0
1.800000 0.200000 0
1.900000 0.200000 0
2.000000 0.200000 0
2.100000 0.200000 0
2.200000 0.200000 0
2.300000 0.200000 0
2.400000 0.200000 0
2.500000 0.200000 0
2.600000 0.200000 0
2.700000 0.200000 0
2.800000 0.200000 0
2.900000 0.200000 0
3.000000 0.200000 0
3.100000 0.200000 0
3.200000 0.200000 0
3.300000 0.200000 0
3.400000 0.200000 0
3.500000 0.200000 0
3.600000 0.200000 0
3.700000 0.200000 0
3.800000 0.200000 0
3.900000 0.200000 0
4.000000 0.200000 0
4.100000 0.200000 0
4.200000 0.200000 0
4.300000 0.200000 0
4.400000 0.200000 0
4.500000 0.200000 0
4.600000 0.200000 0
4.700000 0.200000 0
4.800000 0.200000 0
4.900000 0.200000 0
5.000000 0.200000 0
5.100000 0.200000 0
5.200000 0.200000 0
5.300000 0.200000 0
5.400000 0.200000 0
5.500000 0.200000 0
5.600000 0.200000 0
5.700000 0.200000 0
5.800000 0.200000 0
5.900000 0.200000 0
6.000000 0.200000 0
6.100000 0.200000 0
6.200000 0.200000 0
6.300000 0.200000 0
6.400000 0.200000 0
6.500000 0.200000 0
6.600000 0.200000 0
6.700000 0.200000 0
6.800000 0.200000 0
6.900000 0.200000 0
7.000000 0.200000 0
7.100000 0.200000 0
7.200000 0.200000 0
7.300000 0.200000 0
7.400000 0.200000 0
7.500000 0.200000 0
7.600000 0.200000 0
7.700000 0.200000 0
7.800000 0.200000 0
7.900000 0.200000 0
8.000000 0.200000 0
8.100000 0.200000 0
8.200000 0.200000 0
8.300000 0.200000 0
8.400000 0.200000 0
8.500000 0.200000 0
8.600000 0.200000 0
8.700000 0.200000 0
8.800000 0.200000 0
8.900000 0.200000 0
9.000000 0.200000 0
9.100000 0.200000 0
9.200000 0.200000 0
9.300000 0.200000 0
9.400000 0.200000 0
9.500000 0.200000 0
9.600000 0.200000 0
9.700000 0.200000 0
9.800000 0.200000 0
9.900000 0.200000 0
10.000000 0.200000 0
0.000000 0.300000 0
0.100000 0.300000 0
0.200000 0.300000 0
0.300000 0.300000 0
0.400000 0.300000 0
0.500000 0.300000 0
0.600000 0.300000 0
0.700000 0.300000 0
0.800000 0.300000 0
0.900000 0.300000 0
1.000000 0.300000 0
1.100000 0.300000 0
1.200000 0.300000 0
1.300000 0.300000 0
1.400000 0.300000 0
1.500000 0.300000 0
1.600000 0.300000 0
1.700000 0.300000 0
1.800000 0.300000 0
1.900000 0.300000 0
2.000000 0.300000 0
2.100000 0.300000 0
2.200000 0.300000 0
2.300000 0.300000 0
2.400000 0.300000 0
2.500000 0.300000 0
2.600000 0.300000 0
2.700000 0.300000 0
2.800000 0.300000 0
2.900000 0.300000 0
3.000000 0.300000 0
3.100000 0.300000 0
3.200000 0.300000 0
3.300000 0.300000 0
3.400000 0.300000 0
3.500000 0.300000 0
3.600000 0.300000 0
3.700000 0.300000 0
3.800000 0.300000 0
3.900000 0.300000 0
4.000000 0.300000 0
4.100000 0.300000 0
4.200000 0.300000 0
4.300000 0.300000 0
4.400000 0.300000 0
4.500000 0.300000 0
4.600000 0.300000 0
4.700000 0.300000 0
4.800000 0.300000 0
4.900000 0.300000 0
5.000000 0.300000 0
5.100000 0.300000 0
5.200000 0.300000 0
5.300000 0.300000 0
5.400000 0.300000 0
5.500000 0.300000 0
5.600000 0.300000 0
5.700000 0.300000 0
5.800000 0.300000 0
5.900000 0.300000 0
6.000000 0.300000 0
6.100000 0.300000 0
6.200000 0.300000 0
6.300000 0.300000 0
6.400000 0.300000 0
6.500000 0.300000 0
6.600000 0.300000 0
6.700000 0.300000 0
6.800000 0.300000 0
6.900000 0.300000 0
7.000000 0.300000 0
7.100000 0.300000 0
7.200000 0.300000 0
7.300000 0.300000 0
7.400000 0.300000 0
7.500000 0.300000 0
7.600000 0.300000 0
7.700000 0.300000 0
7.800000 0.300000 0
7.900000 0.300000 0
8.000000 0.300000 0
8.100000 0.300000 0
8.200000 0.300000 0
8.300000 0.300000 0
8.400000 0.300000 0
8.500000 0.300000 0
8.600000 0.300000 0
8.700000 0.300000 0
8.800000 0.300000 0
8.900000 0.300000 0
9.000000 0.300000 0
9.100000 0.300000 0
9.200000 0.300000 0
9.300000 0.300000 0
9.400000 0.300000 0
9.500000 0.300000 0
9.600000 0.300000 0
9.700000 0.300000 0
9.800000 0.300000 0
9.900000 0.300000 0
10.000000 0.300000 0
0.000000 0.400000 0
0.100000 0.400000 0
0.200000 0.400000 0
0.300000 0.400000 0
0.400000 0.400000 0
0.500000 0.400000 0
0.600000 0.400000 0
0.700000 0.400000 0
0.800000 0.400000 0
0.900000 0.400000 0
1.000000 0.400000 0
1.100000 0.400000 0
1.200000 0.400000 0
1.300000 0.400000 0
1.400000 0.400000 0
1.500000 0.400000 0
1.600000 0.400000 0
1.700000 0.400000 0
1.800000 0.400000 0
1.900000 0.400000 0
2.000000 0.400000 0
2.100000 0.400000 0
2.200000 0.400000 0
2.300000 0.400000 0
2.400000 0.400000 0
2.500000 0.400000 0
2.600000 0.400000 0
2.700000 0.400000 0
2.800000 0.400000 0
2.900000 0.400000 0
3.000000 0.400000 0
3.100000 0.400000 0
3.200000 0.400000 0
3.300000 0.400000 0
3.400000 0.400000 0
3.500000 0.400000 0
3.600000 0.400000 0
3.700000 0.400000 0
3.800000 0.400000 0
3.900000 0.400000 0
4.000000 0.400000 0
4.100000 0.400000 0
4.200000 0.400000 0
4.300000 0.400000 0
4.400000 0.400000 0
4.500000 0.400000 0
4.600000 0.400000 0
4.700000 0.400000 0
4.800000 0.400000 0
4.900000 0.400000 0
5.000000 0.400000 0
5.100000 0.400000 0
5.200000 0.400000 0
5.300000 0.400000 0
5.400000 0.400000 0
5.500000 0.400000 0
5.600000 0.400000 0
5.700000 0.400000 0
5.800000 0.400000 0
5.900000 0.400000 0
6.000000 0.400000 0
6.100000 0.400000 0
6.200000 0.400000 0
6.300000 0.400000 0
6.400000 0.400000 0
6.500000 0.400000 0
6.600000 0.400000 0
6.700000 0.400000 0
6.800000 0.400000 0
6.900000 0.400000 0
7.000000 0.400000 0
7.100000 0.400000 0
7.200000 0.400000 0
7.300000 0.400000 0
7.400000 0.400000 0
7.500000 0.400000 0
7.600000 0.400000 0
7.700000 0.400000 0
7.800000 0.400000 0
7.900000 0.400000 0
8.000000 0.400000 0
8.100000 0.400000 0
8.200000 0.400000 0
8.300000 0.400000 0
8.400000 0.400000 0
8.500000 0.400000 0
8.600000 0.400000 0
[...]
POINT_DATA 2121 

VECTORS velocity float
0.500000 0.000000 0
-0.000002 0.000000 0
-0.000004 0.000000 0
-0.000005 0.000000 0
-0.000002 0.000000 0
0.000007 0.000000 0
0.000024 0.000000 0
0.000054 0.000000 0
0.000098 0.000000 0
0.000158 0.000000 0
0.000232 0.000000 0
0.000315 0.000000 0
0.000398 0.000000 0
0.000466 0.000000 0
0.000501 0.000000 0
0.000481 0.000000 0
0.000390 0.000000 0
0.000215 0.000000 0
-0.000050 0.000000 0
-0.000400 0.000000 0
-0.000819 0.000000 0
-0.001279 0.000000 0
-0.001734 0.000000 0
-0.002116 0.000000 0
-0.002331 0.000000 0
-0.002292 0.000000 0
-0.001963 0.000000 0
-0.001380 0.000000 0
-0.000616 0.000000 0
0.000233 0.000000 0
0.001074 0.000000 0
0.001835 0.000000 0
0.002468 0.000000 0
0.002943 0.000000 0
0.003248 0.000000 0
0.003375 0.000000 0
0.003320 0.000000 0
0.003082 0.000000 0
0.002659 0.000000 0
0.002047 0.000000 0
0.001239 0.000000 0
0.000221 0.000000 0
-0.000999 0.000000 0
-0.002305 0.000000 0
-0.003592 0.000000 0
-0.004736 0.000000 0
-0.005589 0.000000 0
-0.005995 0.000000 0
-0.005823 0.000000 0
-0.005021 0.000000 0
-0.003661 0.000000 0
-0.001965 0.000000 0
-0.000232 0.000000 0
0.001394 0.000000 0
0.002820 0.000000 0
0.003976 0.000000 0
0.004818 0.000000 0
0.005331 0.000000 0
0.005524 0.000000 0
0.005416 0.000000 0
0.005031 0.000000 0
0.004388 0.000000 0
0.003504 0.000000 0
0.002400 0.000000 0
0.001123 0.000000 0
-0.000227 0.000000 0
-0.001445 0.000000 0
-0.002492 0.000000 0
-0.003384 0.000000 0
-0.004142 0.000000 0
-0.004774 0.000000 0
-0.005265 0.000000 0
-0.005562 0.000000 0
-0.005579 0.000000 0
-0.005208 0.000000 0
-0.004370 0.000000 0
-0.003075 0.000000 0
-0.001474 0.000000 0
0.000212 0.000000 0
0.001878 0.000000 0
0.003426 0.000000 0
0.004747 0.000000 0
0.005731 0.000000 0
0.006279 0.000000 0
0.006311 0.000000 0
0.005796 0.000000 0
0.004772 0.000000 0
0.003364 0.000000 0
0.001773 0.000000 0
0.000231 0.000000 0
-0.001019 0.000000 0
-0.001882 0.000000 0
-0.002466 0.000000 0
-0.002873 0.000000 0
-0.003181 0.000000 0
-0.003444 0.000000 0
-0.003688 0.000000 0
-0.003916 0.000000 0
-0.004115 0.000000 0
-0.004265 0.000000 0
-0.004502 0.000000 0
1.000000 0.000000 0
1.002686 -0.004884 0
1.011025 -0.010570 0
1.025411 -0.016732 0
1.046261 -0.023147 0
1.073812 -0.029416 0
1.107803 -0.034843 0
1.147057 -0.038473 0
1.189179 -0.039329 0
1.230436 -0.037027 0
1.267368 -0.032090 0
1.297754 -0.025494 0
1.320580 -0.018181 0
1.335677 -0.010885 0
1.343461 -0.004158 0
1.344790 0.001582 0
1.340856 0.006042 0
1.333095 0.009029 0
1.323108 0.010443 0
1.312549 0.010300 0
1.303001 0.008742 0
1.295837 0.006045 0
1.292091 0.002626 0
1.292303 -0.000907 0
1.296270 -0.003753 0
1.302859 -0.005110 0
1.310082 -0.004484 0
1.315562 -0.001877 0
1.317199 0.002302 0
1.313647 0.007428 0
1.304370 0.012828 0
1.289508 0.017934 0
1.269685 0.022336 0
1.245831 0.025776 0
1.219045 0.028107 0
1.190510 0.029250 0
1.161453 0.029165 0
1.133123 0.027831 0
1.106775 0.025232 0
1.083666 0.021345 0
1.065031 0.016109 0
1.052055 0.009436 0
1.045819 0.001436 0
1.047234 -0.007320 0
1.056909 -0.016042 0
1.074892 -0.023923 0
1.100392 -0.030045 0
1.131635 -0.033466 0
1.165909 -0.033418 0
1.199740 -0.029555 0
1.229276 -0.022226 0
1.250948 -0.012590 0
1.262318 -0.002226 0
1.262698 0.007728 0
1.252871 0.016669 0
1.234251 0.024143 0
1.208634 0.029844 0
1.178002 0.033627 0
1.144381 0.035475 0
1.109736 0.035448 0
1.075918 0.033631 0
1.044637 0.030103 0
1.017424 0.024939 0
0.995552 0.018263 0
0.979915 0.010371 0
0.970923 0.001957 0
0.968551 -0.005953 0
0.972431 -0.012747 0
0.981972 -0.018408 0
0.996549 -0.023051 0
1.015558 -0.026756 0
1.038412 -0.029479 0
1.064447 -0.030997 0
1.092736 -0.030889 0
1.121870 -0.028623 0
1.149837 -0.023786 0
1.174099 -0.016415 0
1.191889 -0.007244 0
1.200784 0.002638 0
1.199537 0.012436 0
1.188410 0.021604 0
1.168384 0.029546 0
1.141035 0.035646 0
1.108474 0.039318 0
1.073231 0.040070 0
1.038072 0.037641 0
1.005692 0.032159 0
0.978323 0.024267 0
0.957357 0.015080 0
0.943178 0.005994 0
0.935302 -0.001568 0
0.932780 -0.006897 0
0.934394 -0.010279 0
0.938934 -0.012297 0
0.945485 -0.013419 0
0.953438 -0.013950 0
0.962411 -0.014019 0
0.972098 -0.013579 0
0.982105 -0.012417 0
0.991814 -0.010069 0
0.999554 -0.008755 0
1.000000 0.000002 0
1.003007 -0.011040 0
1.011815 -0.022736 0
1.026777 -0.035248 0
1.048538 -0.048414 0
1.077773 -0.061555 0
1.114782 -0.073259 0
1.158790 -0.081390 0
1.207356 -0.083393 0
1.254546 -0.078203 0
1.295574 -0.067332 0
1.328262 -0.053225 0
1.352118 -0.037935 0
1.367398 -0.022893 0
1.374754 -0.009125 0
1.375227 0.002593 0
1.370121 0.011684 0
1.360986 0.017738 0
1.349571 0.020535 0
1.337705 0.020097 0
1.327148 0.016703 0
1.319452 0.010900 0
1.315865 0.003524 0
1.317238 -0.004188 0
1.323619 -0.010566 0
1.333803 -0.013823 0
1.345256 -0.012714 0
1.354746 -0.007129 0
1.359490 0.001902 0
1.358038 0.012816 0
1.350040 0.024126 0
1.335897 0.034672 0
1.316475 0.043663 0
1.292867 0.050626 0
1.266256 0.055307 0
1.237848 0.057577 0
1.208850 0.057374 0
1.180465 0.054665 0
1.153883 0.049444 0
1.130258 0.041732 0
1.110665 0.031599 0
1.096043 0.019200 0
1.087168 0.004810 0
1.084830 -0.011100 0
1.089892 -0.027669 0
1.102830 -0.043494 0
1.123434 -0.056754 0
1.150768 -0.065528 0
1.183211 -0.068116 0
1.218334 -0.063378 0
1.252735 -0.051219 0
1.282213 -0.033054 0
1.302547 -0.011762 0
1.311018 0.009435 0
1.307862 0.028434 0
1.294755 0.044224 0
1.273732 0.056236 0
1.246962 0.064240 0
1.216580 0.068253 0
1.184587 0.068450 0
1.152777 0.065085 0
1.122690 0.058480 0
1.095539 0.049072 0
1.072146 0.037497 0
1.052910 0.024617 0
1.037884 0.011351 0
1.027098 -0.001520 0
1.020755 -0.013432 0
1.018870 -0.024130 0
1.021365 -0.033598 0
1.028223 -0.041873 0
1.039570 -0.048899 0
1.055601 -0.054334 0
1.076296 -0.057432 0
1.101096 -0.057110 0
1.128702 -0.052237 0
1.157030 -0.042059 0
1.183245 -0.026691 0
1.203991 -0.007653 0
1.216248 0.012369 0
1.218835 0.031149 0
1.212393 0.047373 0
1.198213 0.059909 0
1.178029 0.067804 0
1.153822 0.070403 0
1.127587 0.067541 0
1.101096 0.059752 0
1.075730 0.048339 0
1.052413 0.035150 0
1.031693 0.022061 0
1.013918 0.010404 0
0.999450 0.000915 0
0.988319 -0.006145 0
0.980170 -0.011082 0
0.974553 -0.014495 0
0.971200 -0.016917 0
0.970068 -0.018650 0
0.971199 -0.019685 0
0.974527 -0.019706 0
0.979735 -0.017439 0
0.985632 -0.016092 0
1.000000 0.000004 0
1.002608 -0.016710 0
1.010602 -0.034345 0
1.024625 -0.053460 0
1.045830 -0.074149 0
1.075756 -0.095667 0
1.115944 -0.115866 0
1.166784 -0.131053 0
1.226910 -0.135091 0
1.283456 -0.125251 0
1.329171 -0.105811 0
1.363102 -0.082042 0
1.386356 -0.057321 0
1.400000 -0.033525 0
1.404909 -0.011992 0
1.402302 0.006211 0
1.393547 0.020279 0
1.380351 0.029575 0
1.364725 0.033720 0
1.348810 0.032719 0
1.334680 0.026991 0
1.324156 0.017324 0
1.318756 0.004835 0
1.319835 -0.008666 0
1.328116 -0.020323 0
1.342514 -0.026752 0
1.359712 -0.025432 0
1.374928 -0.016117 0
1.383818 -0.000996 0
1.384443 0.016873 0
1.376918 0.034963 0
1.362217 0.051492 0
1.341689 0.065360 0
1.316738 0.075990 0
1.288690 0.083121 0
1.258773 0.086651 0
1.228146 0.086543 0
1.197928 0.082793 0
1.169206 0.075436 0
1.143032 0.064559 0
1.120379 0.050320 0
1.102083 0.032928 0
1.088789 0.012644 0
1.080954 -0.010049 0
1.079028 -0.034047 0
1.083409 -0.057469 0
1.094351 -0.077987 0
1.112108 -0.093247 0
1.136910 -0.100988 0
1.168272 -0.099084 0
1.204197 -0.086110 0
1.240826 -0.062407 0
1.272804 -0.031037 0
1.294573 0.002408 0
1.303052 0.032926 0
1.299564 0.058266 0
1.286361 0.077630 0
1.265824 0.090773 0
1.240243 0.097845 0
1.211691 0.099245 0
1.181950 0.095522 0
1.152463 0.087337 0
1.124319 0.075477 0
1.098284 0.060886 0
1.074866 0.044628 0
1.054356 0.027764 0
1.036780 0.011172 0
1.021951 -0.004523 0
1.009700 -0.019023 0
1.000247 -0.032409 0
0.994453 -0.044965 0
0.993577 -0.056862 0
0.998933 -0.067727 0
1.011261 -0.076387 0
1.030346 -0.081033 0
1.055042 -0.079723 0
1.083509 -0.070961 0
1.113416 -0.054207 0
1.142031 -0.030367 0
1.166125 -0.002411 0
1.182510 0.025456 0
1.190270 0.050168 0
1.189963 0.070010 0
1.182629 0.083707 0
1.169547 0.090512 0
1.152030 0.090367 0
1.131296 0.084016 0
1.108456 0.072950 0
1.084581 0.059117 0
1.060716 0.044491 0
1.037748 0.030676 0
1.016203 0.018702 0
0.996379 0.009002 0
0.978507 0.001469 0
0.962834 -0.004449 0
0.949794 -0.009464 0
0.939971 -0.014016 0
0.933891 -0.018037 0
0.931691 -0.020952 0
0.932982 -0.021173 0
0.937141 -0.021398 0
1.000000 0.000006 0
1.002076 -0.021653 0
1.008602 -0.044759 0
1.020514 -0.070482 0
1.039589 -0.099550 0
1.068625 -0.131674 0
1.111429 -0.164292 0
1.171341 -0.192363 0
1.252795 -0.200071 0
1.321370 -0.180468 0
1.368651 -0.146984 0
1.399644 -0.110415 0
1.419247 -0.074838 0
1.429521 -0.041451 0
1.430881 -0.011431 0
1.424090 0.013952 0
1.410242 0.033631 0
1.391193 0.046556 0
1.369326 0.052073 0
1.347266 0.050137 0
1.327544 0.041352 0
1.312276 0.026820 0
1.303019 0.007840 0
1.301217 -0.013552 0
1.308877 -0.033250 0
1.326051 -0.045425 0
1.349557 -0.045134 0
1.373339 -0.031241 0
1.390152 -0.007619 0
1.395345 0.019710 0
1.389519 0.046347 0
1.374802 0.069896 0
1.353387 0.089136 0
1.327141 0.103619 0
1.297572 0.113266 0
1.265928 0.118116 0
1.233319 0.118214 0
1.200797 0.113600 0
1.169404 0.104334 0
1.140169 0.090555 0
1.114038 0.072544 0
1.091660 0.050785 0
1.073019 0.025934 0
1.057232 -0.001343 0
1.043235 -0.030128 0
1.031553 -0.058822 0
1.024393 -0.085458 0
1.024766 -0.108092 0
1.035661 -0.124285 0
1.058380 -0.130670 0
1.091836 -0.123779 0
1.132714 -0.101667 0
1.175818 -0.065514 0
1.214468 -0.020818 0
1.241660 0.023438 0
1.254648 0.060909 0
1.255397 0.089970 0
1.246297 0.110352 0
1.229725 0.122381 0
1.207876 0.126736 0
1.182670 0.124308 0
1.155697 0.116107 0
1.128218 0.103246 0
1.101174 0.086944 0
1.075160 0.068540 0
1.050355 0.049432 0
1.026478 0.030880 0
1.003035 0.013644 0
0.980002 -0.002431 0
0.958433 -0.018355 0
0.940704 -0.035207 0
0.929855 -0.053384 0
0.927969 -0.072023 0
0.935470 -0.088848 0
0.951420 -0.100895 0
0.974160 -0.105404 0
1.001782 -0.100436 0
1.032323 -0.085216 0
1.063771 -0.060364 0
1.093897 -0.028112 0
1.119717 0.007002 0
1.138359 0.039918 0
1.149266 0.067548 0
1.152721 0.088218 0
1.149361 0.101000 0
1.139991 0.105792 0
1.125494 0.103326 0
1.106823 0.095052 0
1.084995 0.082889 0
1.061018 0.068893 0
1.035769 0.054917 0
1.009942 0.042284 0
0.984195 0.031550 0
0.959409 0.022463 0
0.936795 0.014218 0
0.917680 0.005946 0
0.903163 -0.002748 0
0.893799 -0.011406 0
0.889492 -0.018798 0
0.889474 -0.022890 0
0.892698 -0.025367 0
1.000000 0.000008 0
1.001241 -0.025323 0
1.005280 -0.052789 0
1.013162 -0.084452 0
1.027091 -0.122266 0
1.051169 -0.167512 0
1.092487 -0.218587 0
1.160781 -0.272424 0
1.279073 -0.285125 0
1.352964 -0.241111 0
1.387090 -0.184089 0
1.403817 -0.132642 0
1.413738 -0.087202 0
1.418878 -0.045163 0
1.416845 -0.006564 0
1.405892 0.026846 0
1.386512 0.053173 0
1.360652 0.070487 0
1.331100 0.077643 0
1.301042 0.074497 0
1.273565 0.061977 0
1.251013 0.041845 0
1.234546 0.015890 0
1.224402 -0.014529 0
1.223149 -0.045161 0
1.234332 -0.067437 0
1.258026 -0.072725 0
1.290196 -0.056717 0
1.321908 -0.023009 0
1.341861 0.017499 0
1.345911 0.055500 0
1.338094 0.087619 0
1.321903 0.113016 0
1.299749 0.131799 0
1.273265 0.144328 0
1.243662 0.150899 0
1.211982 0.151669 0
1.179235 0.146703 0
1.146439 0.136059 0
1.114611 0.119921 0
1.084612 0.098824 0
1.056695 0.073942 0
1.029746 0.047069 0
1.001198 0.019731 0
0.968976 -0.008373 0
0.934816 -0.038631 0
0.905964 -0.071204 0
0.890657 -0.104520 0
0.892390 -0.134607 0
0.910501 -0.155264 0
0.942383 -0.160450 0
0.984641 -0.146395 0
1.033262 -0.112796 0
1.083319 -0.063440 0
1.128379 -0.007259 0
1.161110 0.044524 0
1.180044 0.085976 0
1.186959 0.116439 0
1.183893 0.136260 0
1.172899 0.146295 0
1.155896 0.147696 0
1.134569 0.141783 0
1.110295 0.129996 0
1.084024 0.113939 0
1.056129 0.095442 0
1.026376 0.076441 0
0.994361 0.058487 0
0.960488 0.041949 0
0.926870 0.025575 0
0.897103 0.006884 0
0.874923 -0.016391 0
0.862917 -0.044131 0
0.861618 -0.073347 0
0.869780 -0.099841 0
0.885529 -0.119726 0
0.907094 -0.130089 0
0.932962 -0.129127 0
0.961778 -0.116200 0
0.992209 -0.091945 0
1.022830 -0.058359 0
1.051912 -0.019008 0
1.076586 0.020615 0
1.094735 0.055645 0
1.105875 0.083610 0
1.110015 0.103240 0
1.107475 0.114232 0
1.098770 0.117183 0
1.084546 0.113447 0
1.065524 0.104919 0
1.042446 0.093714 0
1.016105 0.081751 0
0.987502 0.070274 0
0.958064 0.059532 0
0.929690 0.048868 0
0.904478 0.037278 0
0.884190 0.024166 0
0.869776 0.009863 0
0.861201 -0.004368 0
0.857704 -0.016629 0
0.858110 -0.024382 0
0.860960 -0.028790 0
1.000000 0.000010 0
1.000047 -0.026944 0
1.000391 -0.056685 0
1.001775 -0.092299 0
1.006069 -0.137563 0
1.017594 -0.197076 0
1.046116 -0.273910 0
1.111501 -0.378953 0
1.278982 -0.392259 0
1.327192 -0.288491 0
1.314941 -0.197841 0
1.299406 -0.137067 0
1.291895 -0.089903 0
1.292226 -0.044562 0
1.290540 0.001551 0
1.278839 0.044281 0
1.256751 0.078867 0
1.226021 0.101964 0
1.189451 0.111679 0
1.150555 0.107668 0
1.112914 0.091378 0
1.078698 0.065834 0
1.048000 0.034447 0
1.020598 -0.002161 0
0.998089 -0.043185 0
0.990576 -0.080306 0
1.006414 -0.101003 0
1.044579 -0.095129 0
1.096693 -0.059290 0
1.148666 -0.004299 0
1.184655 0.050108 0
1.202007 0.093898 0
1.206553 0.127475 0
1.201600 0.152251 0
1.189014 0.169348 0
1.170109 0.179394 0
1.146045 0.182637 0
1.117935 0.179138 0
1.086731 0.168954 0
1.052816 0.152378 0
1.015361 0.130455 0
0.972294 0.105647 0
0.922211 0.081428 0
0.867603 0.059422 0
0.815714 0.036249 0
0.774889 0.004186 0
0.750833 -0.041304 0
0.744876 -0.094523 0
0.754456 -0.144134 0
0.776414 -0.180668 0
0.808508 -0.197925 0
0.849110 -0.192551 0
0.896386 -0.164197 0
0.947760 -0.115941 0
0.999582 -0.054359 0
1.045780 0.009239 0
1.080022 0.064115 0
1.101922 0.106498 0
1.112610 0.136436 0
1.113541 0.154728 0
1.106246 0.162632 0
1.092134 0.161703 0
1.072290 0.153787 0
1.047260 0.141106 0
1.017026 0.126183 0
0.981509 0.111195 0
0.941699 0.096763 0
0.900705 0.081129 0
0.863528 0.060950 0
0.835251 0.033587 0
0.818697 -0.001026 0
0.813467 -0.040083 0
0.817283 -0.078889 0
0.827693 -0.112764 0
0.842941 -0.138214 0
0.861999 -0.152841 0
0.884250 -0.155123 0
0.909144 -0.144467 0
0.935974 -0.121420 0
0.963807 -0.087819 0
0.991477 -0.046758 0
1.017334 -0.002909 0
1.038682 0.038256 0
1.054168 0.072935 0
1.063213 0.099396 0
1.065645 0.117034 0
1.061551 0.126252 0
1.051186 0.128295 0
1.034939 0.124986 0
1.013390 0.118309 0
0.987495 0.109858 0
0.958803 0.100321 0
0.929500 0.089358 0
0.902101 0.076047 0
0.878856 0.059715 0
0.861182 0.040645 0
0.849428 0.020237 0
0.843044 0.000663 0
0.840913 -0.015710 0
0.841791 -0.026150 0
0.844347 -0.031888 0
1.000000 0.000012 0
0.998593 -0.025725 0
0.994320 -0.054522 0
0.987052 -0.090135 0
0.976958 -0.138091 0
0.965596 -0.207564 0
0.959415 -0.312499 0
0.980720 -0.505296 0
1.142309 -0.500820 0
1.127044 -0.277074 0
1.021222 -0.156308 0
0.962590 -0.109601 0
0.934098 -0.080026 0
0.935495 -0.043813 0
0.948388 0.006820 0
0.947810 0.060632 0
0.933379 0.105986 0
0.904856 0.137783 0
0.862103 0.153105 0
0.806002 0.151030 0
0.740038 0.133830 0
0.672234 0.106754 0
0.614766 0.073985 0
0.579220 0.035377 0
0.570091 -0.015144 0
0.585582 -0.075768 0
0.623005 -0.126734 0
0.679680 -0.147002 0
0.752124 -0.127102 0
0.834342 -0.070469 0
0.913140 0.002153 0
0.972660 0.065716 0
1.011267 0.113418 0
1.034456 0.149332 0
1.044766 0.175814 0
1.043750 0.193864 0
1.032655 0.203839 0
1.012369 0.206012 0
0.983038 0.201174 0
0.943694 0.191287 0
0.892763 0.179340 0
0.830483 0.167088 0
0.762388 0.151755 0
0.700069 0.126223 0
0.656204 0.084337 0
0.637232 0.026245 0
0.639463 -0.041196 0
0.653338 -0.108149 0
0.672615 -0.166151 0
0.695479 -0.209322 0
0.722670 -0.233150 0
0.755612 -0.234277 0
0.794991 -0.211451 0
0.840016 -0.166642 0
0.888459 -0.105285 0
0.936938 -0.035922 0
0.979159 0.029828 0
1.010818 0.083846 0
1.031706 0.124635 0
1.042308 0.152654 0
1.043405 0.169098 0
1.035754 0.175733 0
1.019842 0.174865 0
0.995852 0.169198 0
0.964119 0.161188 0
0.926151 0.151763 0
0.885560 0.139285 0
0.847768 0.120115 0
0.818110 0.091024 0
0.799643 0.051711 0
0.792358 0.005388 0
0.793888 -0.042722 0
0.801041 -0.087578 0
0.811534 -0.125504 0
0.824234 -0.154037 0
0.838868 -0.171403 0
0.855620 -0.176276 0
0.874711 -0.167929 0
0.896064 -0.146611 0
0.919160 -0.113866 0
0.943105 -0.072540 0
0.966722 -0.026595 0
0.988047 0.018807 0
1.005012 0.059075 0
1.016551 0.091758 0
1.022049 0.115890 0
1.021196 0.131637 0
1.013926 0.140055 0
1.000456 0.142711 0
0.981446 0.141153 0
0.958195 0.136333 0
0.932708 0.128265 0
0.907446 0.116230 0
0.884785 0.099507 0
0.866426 0.078192 0
0.853096 0.053590 0
0.844632 0.027996 0
0.840299 0.004142 0
0.839114 -0.015380 0
0.840076 -0.027820 0
0.842292 -0.034552 0
1.000000 0.000014 0
0.997176 -0.021276 0
0.988325 -0.045149 0
0.972096 -0.074942 0
0.945848 -0.116112 0
0.904835 -0.179538 0
0.840416 -0.289038 0
0.737517 -0.561852 0
0.553234 -0.538588 0
-0.000336 -0.167408 0
0.399205 -0.033391 0
0.326228 -0.049947 0
0.330637 -0.062813 0
0.370744 -0.058856 0
0.421903 -0.010768 0
0.453376 0.059286 0
0.460085 0.121818 0
0.444280 0.173236 0
0.405012 0.210528 0
0.344908 0.229728 0
0.273762 0.225142 0
0.209420 0.191102 0
0.172420 0.127455 0
0.173613 0.042509 0
0.208618 -0.049552 0
0.261317 -0.133225 0
0.320667 -0.195106 0
0.385474 -0.224253 0
0.458726 -0.213957 0
0.542572 -0.165321 0
0.635123 -0.088216 0
0.723389 -0.004233 0
0.792418 0.065675 0
0.840723 0.118747 0
0.871823 0.160049 0
0.887133 0.191500 0
0.887397 0.214013 0
0.872782 0.228751 0
0.842989 0.237624 0
0.798250 0.242649 0
0.741664 0.243662 0
0.681533 0.236017 0
0.630236 0.211837 0
0.598455 0.165601 0
0.589538 0.099082 0
0.599162 0.020923 0
0.618345 -0.057415 0
0.638824 -0.127680 0
0.657045 -0.186280 0
0.672992 -0.230728 0
0.688947 -0.258063 0
0.708279 -0.264878 0
0.733947 -0.248606 0
0.767083 -0.209415 0
0.806520 -0.151287 0
0.849416 -0.081466 0
0.891690 -0.009771 0
0.927194 0.053945 0
0.953525 0.104940 0
0.970090 0.143023 0
0.976800 0.169181 0
0.973705 0.185261 0
0.960906 0.193683 0
0.938876 0.196823 0
0.909230 0.195879 0
0.875461 0.189749 0
0.842750 0.175141 0
0.816356 0.148575 0
0.799532 0.109071 0
0.792568 0.059335 0
0.793546 0.004724 0
0.799654 -0.048771 0
0.808222 -0.096541 0
0.817512 -0.135961 0
0.826770 -0.165552 0
0.836099 -0.184232 0
0.846221 -0.190972 0
0.858079 -0.184916 0
0.872350 -0.165874 0
0.889104 -0.134865 0
0.907756 -0.094325 0
0.927250 -0.047856 0
0.946182 -0.000039 0
0.962407 0.044425 0
0.974470 0.082355 0
0.981413 0.112384 0
0.982646 0.134369 0
0.977934 0.149029 0
0.967499 0.157460 0
0.952184 0.160565 0
0.933541 0.158590 0
0.913671 0.151064 0
0.894792 0.137275 0
0.878686 0.117061 0
0.866332 0.091397 0
0.857886 0.062432 0
0.852920 0.033028 0
0.850727 0.006175 0
0.850537 -0.015494 0
0.851640 -0.029334 0
0.853579 -0.036790 0
1.000000 0.000015 0
0.996197 -0.014062 0
0.984183 -0.029448 0
0.961754 -0.047663 0
0.924292 -0.070834 0
0.862524 -0.102137 0
0.756631 -0.145186 0
0.563178 -0.218119 0
0.073048 -0.000017 0
-0.532516 0.134088 0
0.000000 0.000079 0
-0.032710 -0.052263 0
-0.057778 -0.124546 0
-0.029833 -0.135082 0
-0.007312 -0.075815 0
0.026167 0.022446 0
0.049853 0.115078 0
0.054831 0.192852 0
0.040004 0.252473 0
0.012537 0.282276 0
-0.012926 0.269314 0
-0.012961 0.208092 0
0.017882 0.109786 0
0.068091 -0.000827 0
0.120995 -0.102853 0
0.169066 -0.187822 0
0.211816 -0.250897 0
0.253409 -0.285066 0
0.300722 -0.284206 0
0.359730 -0.246871 0
0.432279 -0.178669 0
0.514838 -0.091585 0
0.594005 -0.003922 0
0.656025 0.069922 0
0.699152 0.129400 0
0.724306 0.178284 0
0.731695 0.218185 0
0.721599 0.250415 0
0.695514 0.275701 0
0.657874 0.292608 0
0.617294 0.296053 0
0.585128 0.278512 0
0.570671 0.234829 0
0.576513 0.166916 0
0.598298 0.083625 0
0.628009 -0.002566 0
0.656317 -0.080863 0
0.678680 -0.146854 0
0.693484 -0.200324 0
0.701163 -0.241229 0
0.704188 -0.268443 0
0.706845 -0.279283 0
0.714144 -0.270261 0
0.729885 -0.239221 0
0.754993 -0.187624 0
0.787389 -0.121098 0
0.823237 -0.047956 0
0.857265 0.022006 0
0.884628 0.081734 0
0.903533 0.129373 0
0.913126 0.165477 0
0.913031 0.191623 0
0.903456 0.209689 0
0.885683 0.220870 0
0.862614 0.224598 0