# vtk DataFile Version 2.0
generated by CFD-lab course output (written by Tobias Neckel) 
ASCII

DATASET STRUCTURED_GRID
DIMENSIONS  101 21 1 
POINTS 2121 float

0.000000 0.000000 0
0.100000 0.000000 0
0.200000 0.000000 0
0.300000 0.000000 0
0.400000 0.000000 0
0.500000 0.000000 0
0.600000 0.000000 0
0.700000 0.000000 0
0.800000 0.000000 0
0.900000 0.000000 0
1.000000 0.000000 0
1.100000 0.000000 0
1.200000 0.000000 0
1.300000 0.000000 0
1.400000 0.000000 0
1.500000 0.000000 0
1.600000 0.000000 0
1.700000 0.000000 0
1.800000 0.000000 0
1.900000 0.000000 0
2.000000 0.000000 0
2.100000 0.000000 0
2.200000 0.000000 0
2.300000 0.000000 0
2.400000 0.000000 0
2.500000 0.000000 0
2.600000 0.000000 0
2.700000 0.000000 0
2.800000 0.000000 0
2.900000 0.000000 0
3.000000 0.000000 0
3.100000 0.000000 0
3.200000 0.000000 0
3.300000 0.000000 0
3.400000 0.000000 0
3.500000 0.000000 0
3.600000 0.000000 0
3.700000 0.000000 0
3.800000 0.000000 0
3.900000 0.000000 0
4.000000 0.000000 0
4.100000 0.000000 0
4.200000 0.000000 0
4.300000 0.000000 0
4.400000 0.000000 0
4.500000 0.000000 0
4.600000 0.000000 0
4.700000 0.000000 0
4.800000 0.000000 0
4.900000 0.000000 0
5.000000 0.000000 0
5.100000 0.000000 0
5.200000 0.000000 0
5.300000 0.000000 0
5.400000 0.000000 0
5.500000 0.000000 0
5.600000 0.000000 0
5.700000 0.000000 0
5.800000 0.000000 0
5.900000 0.000000 0
6.000000 0.000000 0
6.100000 0.000000 0
6.200000 0.000000 0
6.300000 0.000000 0
6.400000 0.000000 0
6.500000 0.000000 0
6.600000 0.000000 0
6.700000 0.000000 0
6.800000 0.000000 0
6.900000 0.000000 0
7.000000 0.000000 0
7.100000 0.000000 0
7.200000 0.000000 0
7.300000 0.000000 0
7.400000 0.000000 0
7.500000 0.000000 0
7.600000 0.000000 0
7.700000 0.000000 0
7.800000 0.000000 0
7.900000 0.000000 0
8.000000 0.000000 0
8.100000 0.000000 0
8.200000 0.000000 0
8.300000 0.000000 0
8.400000 0.000000 0
8.500000 0.000000 0
8.600000 0.000000 0
8.700000 0.000000 0
8.800000 0.000000 0
8.900000 0.000000 0
9.000000 0.000000 0
9.100000 0.000000 0
9.200000 0.000000 0
9.300000 0.000000 0
9.400000 0.000000 0
9.500000 0.000000 0
9.600000 0.000000 0
9.700000 0.000000 0
9.800000 0.000000 0
9.900000 0.000000 0
10.000000 0.000000 0
0.000000 0.100000 0
0.100000 0.100000 0
0.200000 0.100000 0
0.300000 0.100000 0
0.400000 0.100000 0
0.500000 0.100000 0
0.600000 0.100000 0
0.700000 0.100000 0
0.800000 0.100000 0
0.900000 0.100000 0
1.000000 0.100000 0
1.100000 0.100000 0
1.200000 0.100000 0
1.300000 0.100000 0
1.400000 0.100000 0
1.500000 0.100000 0
1.600000 0.100000 0
1.700000 0.100000 0
1.800000 0.100000 0
1.900000 0.100000 0
2.000000 0.100000 0
2.100000 0.100000 0
2.200000 0.100000 0
2.300000 0.100000 0
2.400000 0.100000 0
2.500000 0.100000 0
2.600000 0.100000 0
2.700000 0.100000 0
2.800000 0.100000 0
2.900000 0.100000 0
3.000000 0.100000 0
3.100000 0.100000 0
3.200000 0.100000 0
3.300000 0.100000 0
3.400000 0.100000 0
3.500000 0.100000 0
3.600000 0.100000 0
3.700000 0.100000 0
3.800000 0.100000 0
3.900000 0.100000 0
4.000000 0.100000 0
4.100000 0.100000 0
4.200000 0.100000 0
4.300000 0.100000 0
4.400000 0.100000 0
4.500000 0.100000 0
4.600000 0.100000 0
4.700000 0.100000 0
4.800000 0.100000 0
4.900000 0.100000 0
5.000000 0.100000 0
5.100000 0.100000 0
5.200000 0.100000 0
5.300000 0.100000 0
5.400000 0.100000 0
5.500000 0.100000 0
5.600000 0.100000 0
5.700000 0.100000 0
5.800000 0.100000 0
5.900000 0.100000 0
6.000000 0.100000 0
6.100000 0.100000 0
6.200000 0.100000 0
6.300000 0.100000 0
6.400000 0.100000 0
6.500000 0.100000 0
6.600000 0.100000 0
6.700000 0.100000 0
6.800000 0.100000 0
6.900000 0.100000 0
7.000000 0.100000 0
7.100000 0.100000 0
7.200000 0.100000 0
7.300000 0.100000 0
7.400000 0.100000 0
7.500000 0.100000 0
7.600000 0.100000 0
7.700000 0.100000 0
7.800000 0.100000 0
7.900000 0.100000 0
8.000000 0.100000 0
8.100000 0.100000 0
8.200000 0.100000 0
8.300000 0.100000 0
8.400000 0.100000 0
8.500000 0.100000 0
8.600000 0.100000 0
8.700000 0.100000 0
8.800000 0.100000 0
8.900000 0.100000 0
9.000000 0.100000 0
9.100000 0.100000 0
9.200000 0.100000 0
9.300000 0.100000 0
9.400000 0.100000 0
9.500000 0.100000 0
9.600000 0.100000 0
9.700000 0.100000 0
9.800000 0.100000 0
9.900000 0.100000 0
10.000000 0.100000 0
0.000000 0.200000 0
0.100000 0.200000 0
0.200000 0.200000 0
0.300000 0.200000 0
0.400000 0.200000 0
0.500000 0.200000 0
0.600000 0.200000 0
0.700000 0.200000 0
0.800000 0.200000 0
0.900000 0.200000 0
1.000000 0.200000 0
1.100000 0.200000 0
1.200000 0.200000 0
1.300000 0.200000 0
1.400000 0.200000 0
1.500000 0.200000 0
1.600000 0.200000 0
1.700000 0.200000 0
1.800000 0.200000 0
1.900000 0.200000 0
2.000000 0.200000 0
2.100000 0.200000 0
2.200000 0.200000 0
2.300000 0.200000 0
2.400000 0.200000 0
2.500000 0.200000 0
2.600000 0.200000 0
2.700000 0.200000 0
2.800000 0.200000 0
2.900000 0.200000 0
3.000000 0.200000 0
3.100000 0.200000 0
3.200000 0.200000 0
3.300000 0.200000 0
3.400000 0.200000 0
3.500000 0.200000 0
3.600000 0.200000 0
3.700000 0.200000 0
3.800000 0.200000 0
3.900000 0.200000 0
4.000000 0.200000 0
4.100000 0.200000 0
4.200000 0.200000 0
4.300000 0.200000 0
4.400000 0.200000 0
4.500000 0.200000 0
4.600000 0.200000 0
4.700000 0.200000 0
4.800000 0.200000 0
4.900000 0.200000 0
5.000000 0.200000 0
5.100000 0.200000 0
5.200000 0.200000 0
5.300000 0.200000 0
5.400000 0.200000 0
5.500000 0.200000 0
5.600000 0.200000 0
5.700000 0.200000 0
5.800000 0.200000 0
5.900000 0.200000 0
6.000000 0.200000 0
6.100000 0.200000 0
6.200000 0.200000 0
6.300000 0.200000 0
6.400000 0.200000 0
6.500000 0.200000 0
6.600000 0.200000 0
6.700000 0.200000 0
6.800000 0.200000 0
6.900000 0.200000 0
7.000000 0.200000 0
7.100000 0.200000 0
7.200000 0.200000 0
7.300000 0.200000 0
7.400000 0.200000 0
7.500000 0.200000 0
7.600000 0.200000 0
7.700000 0.200000 0
7.800000 0.200000 0
7.900000 0.200000 0
8.000000 0.200000 0
8.100000 0.200000 0
8.200000 0.200000 0
8.300000 0.200000 0
8.400000 0.200000 0
8.500000 0.200000 0
8.600000 0.200000 0
8.700000 0.200000 0
8.800000 0.200000 0
8.900000 0.200000 0
9.000000 0.200000 0
9.100000 0.200000 0
9.200000 0.200000 0
9.300000 0.200000 0
9.400000 0.200000 0
9.500000 0.200000 0
9.600000 0.200000 0
9.700000 0.200000 0
9.800000 0.200000 0
9.900000 0.200000 0
10.000000 0.200000 0
0.000000 0.300000 0
0.100000 0.300000 0
0.200000 0.300000 0
0.300000 0.300000 0
0.400000 0.300000 0
0.500000 0.300000 0
0.600000 0.300000 0
0.700000 0.300000 0
0.800000 0.300000 0
0.900000 0.300000 0
1.000000 0.300000 0
1.100000 0.300000 0
1.200000 0.300000 0
1.300000 0.300000 0
1.400000 0.300000 0
1.500000 0.300000 0
1.600000 0.300000 0
1.700000 0.300000 0
1.800000 0.300000 0
1.900000 0.300000 0
2.000000 0.300000 0
2.100000 0.300000 0
2.200000 0.300000 0
2.300000 0.300000 0
2.400000 0.300000 0
2.500000 0.300000 0
2.600000 0.300000 0
2.700000 0.300000 0
2.800000 0.300000 0
2.900000 0.300000 0
3.000000 0.300000 0
3.100000 0.300000 0
3.200000 0.300000 0
3.300000 0.300000 0
3.400000 0.300000 0
3.500000 0.300000 0
3.600000 0.300000 0
3.700000 0.300000 0
3.800000 0.300000 0
3.900000 0.300000 0
4.000000 0.300000 0
4.100000 0.300000 0
4.200000 0.300000 0
4.300000 0.300000 0
4.400000 0.300000 0
4.500000 0.300000 0
4.600000 0.300000 0
4.700000 0.300000 0
4.800000 0.300000 0
4.900000 0.300000 0
5.000000 0.300000 0
5.100000 0.300000 0
5.200000 0.300000 0
5.300000 0.300000 0
5.400000 0.300000 0
5.500000 0.300000 0
5.600000 0.300000 0
5.700000 0.300000 0
5.800000 0.300000 0
5.900000 0.300000 0
6.000000 0.300000 0
6.100000 0.300000 0
6.200000 0.300000 0
6.300000 0.300000 0
6.400000 0.300000 0
6.500000 0.300000 0
6.600000 0.300000 0
6.700000 0.300000 0
6.800000 0.300000 0
6.900000 0.300000 0
7.000000 0.300000 0
7.100000 0.300000 0
7.200000 0.300000 0
7.300000 0.300000 0
7.400000 0.300000 0
7.500000 0.300000 0
7.600000 0.300000 0
7.700000 0.300000 0
7.800000 0.300000 0
7.900000 0.300000 0
8.000000 0.300000 0
8.100000 0.300000 0
8.200000 0.300000 0
8.300000 0.300000 0
8.400000 0.300000 0
8.500000 0.300000 0
8.600000 0.300000 0
8.700000 0.300000 0
8.800000 0.300000 0
8.900000 0.300000 0
9.000000 0.300000 0
9.100000 0.300000 0
9.200000 0.300000 0
9.300000 0.300000 0
9.400000 0.300000 0
9.500000 0.300000 0
9.600000 0.300000 0
9.700000 0.300000 0
9.800000 0.300000 0
9.900000 0.300000 0
10.000000 0.300000 0
0.000000 0.400000 0
0.100000 0.400000 0
0.200000 0.400000 0
0.300000 0.400000 0
0.400000 0.400000 0
0.500000 0.400000 0
0.600000 0.400000 0
0.700000 0.400000 0
0.800000 0.400000 0
0.900000 0.400000 0
1.000000 0.400000 0
1.100000 0.400000 0
1.200000 0.400000 0
1.300000 0.400000 0
1.400000 0.400000 0
1.500000 0.400000 0
1.600000 0.400000 0
1.700000 0.400000 0
1.800000 0.400000 0
1.900000 0.400000 0
2.000000 0.400000 0
2.100000 0.400000 0
2.200000 0.400000 0
2.300000 0.400000 0
2.400000 0.400000 0
2.500000 0.400000 0
2.600000 0.400000 0
2.700000 0.400000 0
2.800000 0.400000 0
2.900000 0.400000 0
3.000000 0.400000 0
3.100000 0.400000 0
3.200000 0.400000 0
3.300000 0.400000 0
3.400000 0.400000 0
3.500000 0.400000 0
3.600000 0.400000 0
3.700000 0.400000 0
3.800000 0.400000 0
3.900000 0.400000 0
4.000000 0.400000 0
4.100000 0.400000 0
4.200000 0.400000 0
4.300000 0.400000 0
4.400000 0.400000 0
4.500000 0.400000 0
4.600000 0.400000 0
4.700000 0.400000 0
4.800000 0.400000 0
4.900000 0.400000 0
5.000000 0.400000 0
5.100000 0.400000 0
5.200000 0.400000 0
5.300000 0.400000 0
5.400000 0.400000 0
5.500000 0.400000 0
5.600000 0.400000 0
5.700000 0.400000 0
5.800000 0.400000 0
5.900000 0.400000 0
6.000000 0.400000 0
6.100000 0.400000 0
6.200000 0.400000 0
6.300000 0.400000 0
6.400000 0.400000 0
6.500000 0.400000 0
6.600000 0.400000 0
6.700000 0.400000 0
6.800000 0.400000 0
6.900000 0.400000 0
7.000000 0.400000 0
7.100000 0.400000 0
7.200000 0.400000 0
7.300000 0.400000 0
7.400000 0.400000 0
7.500000 0.400000 0
7.600000 0.400000 0
7.700000 0.400000 0
7.800000 0.400000 0
7.900000 0.400000 0
8.000000 0.400000 0
8.100000 0.400000 0
8.200000 0.400000 0
8.300000 0.400000 0
8.400000 0.400000 0
8.500000 0.400000 0
8.600000 0.400000 0
[...]
POINT_DATA 2121 

VECTORS velocity float
0.500000 0.000000 0
0.000004 0.000000 0
0.000010 0.000000 0
0.000017 0.000000 0
0.000024 0.000000 0
0.000026 0.000000 0
0.000020 0.000000 0
0.000002 0.000000 0
-0.000033 0.000000 0
-0.000090 0.000000 0
-0.000170 0.000000 0
-0.000275 0.000000 0
-0.000399 0.000000 0
-0.000531 0.000000 0
-0.000651 0.000000 0
-0.000729 0.000000 0
-0.000726 0.000000 0
-0.000609 0.000000 0
-0.000365 0.000000 0
-0.000002 0.000000 0
0.000446 0.000000 0
0.000928 0.000000 0
0.001393 0.000000 0
0.001793 0.000000 0
0.002089 0.000000 0
0.002254 0.000000 0
0.002268 0.000000 0
0.002119 0.000000 0
0.001801 0.000000 0
0.001316 0.000000 0
0.000667 0.000000 0
-0.000138 0.000000 0
-0.001093 0.000000 0
-0.002159 0.000000 0
-0.003216 0.000000 0
-0.004120 0.000000 0
-0.004700 0.000000 0
-0.004801 0.000000 0
-0.004338 0.000000 0
-0.003353 0.000000 0
-0.002020 0.000000 0
-0.000586 0.000000 0
0.000796 0.000000 0
0.002028 0.000000 0
0.003046 0.000000 0
0.003816 0.000000 0
0.004331 0.000000 0
0.004601 0.000000 0
0.004642 0.000000 0
0.004467 0.000000 0
0.004086 0.000000 0
0.003501 0.000000 0
0.002709 0.000000 0
0.001701 0.000000 0
0.000487 0.000000 0
-0.000848 0.000000 0
-0.002147 0.000000 0
-0.003354 0.000000 0
-0.004431 0.000000 0
-0.005332 0.000000 0
-0.005990 0.000000 0
-0.006316 0.000000 0
-0.006201 0.000000 0
-0.005546 0.000000 0
-0.004325 0.000000 0
-0.002652 0.000000 0
-0.000798 0.000000 0
0.001024 0.000000 0
0.002714 0.000000 0
0.004176 0.000000 0
0.005321 0.000000 0
0.006079 0.000000 0
0.006408 0.000000 0
0.006289 0.000000 0
0.005728 0.000000 0
0.004765 0.000000 0
0.003476 0.000000 0
0.001980 0.000000 0
0.000443 0.000000 0
-0.000890 0.000000 0
-0.001910 0.000000 0
-0.002682 0.000000 0
-0.003278 0.000000 0
-0.003762 0.000000 0
-0.004172 0.000000 0
-0.004519 0.000000 0
-0.004774 0.000000 0
-0.004876 0.000000 0
-0.004733 0.000000 0
-0.004253 0.000000 0
-0.003384 0.000000 0
-0.002156 0.000000 0
-0.000702 0.000000 0
0.000823 0.000000 0
0.002351 0.000000 0
0.003807 0.000000 0
0.005086 0.000000 0
0.006073 0.000000 0
0.006668 0.000000 0
0.006822 0.000000 0
0.006867 0.000000 0
1.000000 -0.000002 0
1.002569 -0.004604 0
1.010487 -0.009991 0
1.024139 -0.015851 0
1.043947 -0.021989 0
1.070188 -0.028049 0
1.102686 -0.033390 0
1.140414 -0.037130 0
1.181203 -0.038378 0
1.221659 -0.036827 0
1.258714 -0.033047 0
1.290574 -0.028045 0
1.316691 -0.022755 0
1.337368 -0.017811 0
1.353349 -0.013498 0
1.365470 -0.009793 0
1.374355 -0.006439 0
1.380202 -0.003076 0
1.382732 0.000602 0
1.381370 0.004738 0
1.375530 0.009253 0
1.364867 0.013889 0
1.349415 0.018300 0
1.329605 0.022144 0
1.306202 0.025140 0
1.280216 0.027080 0
1.252824 0.027826 0
1.225299 0.027305 0
1.198955 0.025491 0
1.175100 0.022399 0
1.155000 0.018064 0
1.139860 0.012517 0
1.130808 0.005786 0
1.128832 -0.001867 0
1.134639 -0.009765 0
1.148329 -0.016935 0
1.168973 -0.022263 0
1.194377 -0.024691 0
1.221220 -0.023563 0
1.245620 -0.018949 0
1.264004 -0.011737 0
1.273979 -0.003305 0
1.274725 0.005201 0
1.266646 0.013080 0
1.250810 0.019839 0
1.228661 0.025190 0
1.201805 0.029014 0
1.171862 0.031309 0
1.140389 0.032126 0
1.108856 0.031526 0
1.078654 0.029552 0
1.051108 0.026210 0
1.027480 0.021465 0
1.008918 0.015277 0
0.996375 0.007734 0
0.990511 -0.000619 0
0.991692 -0.008926 0
0.999957 -0.016603 0
1.015041 -0.023350 0
1.036360 -0.028891 0
1.063019 -0.032889 0
1.093782 -0.034906 0
1.126980 -0.034414 0
1.160364 -0.030933 0
1.191091 -0.024322 0
1.215967 -0.015139 0
1.232011 -0.004666 0
1.237275 0.005857 0
1.231601 0.015715 0
1.215998 0.024378 0
1.192022 0.031344 0
1.161672 0.036201 0
1.127257 0.038652 0
1.091259 0.038523 0
1.056191 0.035774 0
1.024406 0.030545 0
0.997870 0.023210 0
0.977907 0.014431 0
0.965038 0.005211 0
0.959047 -0.003114 0
0.959272 -0.009703 0
0.964712 -0.014650 0
0.974410 -0.018368 0
0.987628 -0.021245 0
1.003877 -0.023555 0
1.022873 -0.025411 0
1.044397 -0.026730 0
1.068100 -0.027228 0
1.093293 -0.026476 0
1.118817 -0.024028 0
1.143036 -0.019628 0
1.163966 -0.013430 0
1.179567 -0.006079 0
1.188167 0.001617 0
1.189020 0.009067 0
1.182603 0.015758 0
1.170112 0.021016 0
1.153357 0.024005 0
1.134789 0.023766 0
1.117397 0.018163 0
1.105982 0.013660 0
1.000000 -0.000004 0
1.002887 -0.010481 0
1.011259 -0.021568 0
1.025453 -0.033457 0
1.046111 -0.046044 0
1.073931 -0.058733 0
1.109279 -0.070218 0
1.151504 -0.078507 0
1.198353 -0.081234 0
1.244299 -0.077500 0
1.284958 -0.068906 0
1.318553 -0.057967 0
1.345107 -0.046782 0
1.365542 -0.036647 0
1.381144 -0.028091 0
1.393203 -0.020995 0
1.402664 -0.014722 0
1.409807 -0.008367 0
1.414111 -0.001161 0
1.414587 0.007207 0
1.410304 0.016508 0
1.400721 0.026118 0
1.385847 0.035263 0
1.366193 0.043213 0
1.342637 0.049388 0
1.316291 0.053376 0
1.288413 0.054915 0
1.260329 0.053867 0
1.233384 0.050198 0
1.208888 0.043956 0
1.188082 0.035242 0
1.172115 0.024196 0
1.162060 0.011034 0
1.158950 -0.003824 0
1.163820 -0.019490 0
1.177270 -0.034326 0
1.198830 -0.046041 0
1.226637 -0.052241 0
1.257476 -0.051236 0
1.287130 -0.042778 0
1.311107 -0.028354 0
1.325842 -0.010716 0
1.329893 0.007337 0
1.324005 0.023919 0
1.309677 0.037988 0
1.288687 0.049007 0
1.262852 0.056800 0
1.233890 0.061417 0
1.203365 0.063007 0
1.172686 0.061735 0
1.143121 0.057746 0
1.115806 0.051172 0
1.091709 0.042189 0
1.071573 0.031104 0
1.055859 0.018408 0
1.044804 0.004683 0
1.038764 -0.009445 0
1.038164 -0.023345 0
1.043220 -0.036400 0
1.053943 -0.047974 0
1.070238 -0.057418 0
1.091948 -0.063957 0
1.118650 -0.066577 0
1.149290 -0.064107 0
1.181894 -0.055599 0
1.213483 -0.040917 0
1.240259 -0.021306 0
1.258303 0.000411 0
1.265231 0.021278 0
1.261420 0.039580 0
1.248325 0.054327 0
1.227845 0.064766 0
1.202134 0.070413 0
1.173437 0.071065 0
1.143905 0.066851 0
1.115411 0.058318 0
1.089378 0.046495 0
1.066684 0.032826 0
1.047704 0.018852 0
1.032571 0.005756 0
1.021550 -0.005677 0
1.014671 -0.015153 0
1.011656 -0.022933 0
1.012246 -0.029487 0
1.016382 -0.035267 0
1.024259 -0.040544 0
1.036193 -0.045253 0
1.052360 -0.048923 0
1.072550 -0.050746 0
1.096032 -0.049773 0
1.121548 -0.045179 0
1.147357 -0.036563 0
1.171313 -0.024234 0
1.191088 -0.009487 0
1.204792 0.005531 0
1.211719 0.018874 0
1.212686 0.029212 0
1.209120 0.035289 0
1.202710 0.035925 0
1.195128 0.028773 0
1.188182 0.023071 0
1.000000 -0.000007 0
1.002484 -0.015861 0
1.010026 -0.032557 0
1.023242 -0.050700 0
1.043263 -0.070463 0
1.071626 -0.091212 0
1.109898 -0.110957 0
1.158545 -0.126199 0
1.216267 -0.131170 0
1.270836 -0.123429 0
1.315350 -0.107298 0
1.349066 -0.088189 0
1.373577 -0.069739 0
1.390995 -0.053844 0
1.403496 -0.041155 0
1.413149 -0.031310 0
1.421560 -0.023041 0
1.429292 -0.014522 0
1.435398 -0.004177 0
1.437863 0.008545 0
1.434960 0.023119 0
1.425785 0.038345 0
1.410344 0.052826 0
1.389350 0.065353 0
1.363905 0.075041 0
1.335308 0.081303 0
1.304946 0.083789 0
1.274243 0.082335 0
1.244607 0.076933 0
1.217373 0.067703 0
1.193758 0.054841 0
1.174846 0.038543 0
1.161645 0.018956 0
1.155223 -0.003624 0
1.156841 -0.028083 0
1.167433 -0.051943 0
1.186912 -0.071628 0
1.214102 -0.083334 0
1.246806 -0.084054 0
1.281520 -0.072578 0
1.313272 -0.050448 0
1.336477 -0.022089 0
1.347131 0.007039 0
1.345275 0.033296 0
1.333238 0.055157 0
1.313482 0.072015 0
1.288300 0.083811 0
1.259667 0.090796 0
1.229222 0.093330 0
1.198312 0.091769 0
1.168047 0.086432 0
1.139347 0.077622 0
1.112963 0.065698 0
1.089484 0.051127 0
1.069324 0.034504 0
1.052700 0.016478 0
1.039574 -0.002283 0
1.029815 -0.021057 0
1.023554 -0.039127 0
1.021379 -0.055907 0
1.024335 -0.070892 0
1.033789 -0.083317 0
1.050731 -0.091755 0
1.075107 -0.094175 0
1.105583 -0.088514 0
1.139664 -0.073504 0
1.173904 -0.049486 0
1.204128 -0.019115 0
1.225904 0.012598 0
1.236791 0.041284 0
1.237532 0.064920 0
1.229596 0.082392 0
1.214756 0.093060 0
1.194874 0.096751 0
1.171723 0.093798 0
1.146859 0.085069 0
1.121573 0.071934 0
1.096930 0.056102 0
1.073812 0.039319 0
1.052854 0.023034 0
1.034318 0.008192 0
1.018299 -0.004763 0
1.004819 -0.015951 0
0.994172 -0.025979 0
0.987148 -0.035576 0
0.984795 -0.045230 0
0.988082 -0.054839 0
0.997483 -0.063594 0
1.012786 -0.070157 0
1.033160 -0.073035 0
1.057356 -0.070962 0
1.083890 -0.063203 0
1.111142 -0.049818 0
1.137383 -0.031870 0
1.160709 -0.011572 0
1.179250 0.007856 0
1.192158 0.023607 0
1.199993 0.033974 0
1.203601 0.037750 0
1.203765 0.032683 0
1.200969 0.028197 0
1.000000 -0.000011 0
1.001950 -0.020505 0
1.008016 -0.042325 0
1.019094 -0.066691 0
1.036916 -0.094425 0
1.064246 -0.125363 0
1.104852 -0.157133 0
1.162080 -0.184872 0
1.240100 -0.193522 0
1.305880 -0.176581 0
1.350939 -0.147130 0
1.379833 -0.116189 0
1.397547 -0.088708 0
1.407666 -0.066562 0
1.413207 -0.050242 0
1.417159 -0.039057 0
1.422291 -0.030863 0
1.430123 -0.022204 0
1.439467 -0.009731 0
1.446227 0.007646 0
1.446529 0.028585 0
1.438885 0.050733 0
1.423428 0.071697 0
1.401291 0.089652 0
1.373927 0.103429 0
1.342854 0.112334 0
1.309606 0.115979 0
1.275723 0.114208 0
1.242727 0.107072 0
1.212031 0.094809 0
1.184851 0.077772 0
1.162139 0.056313 0
1.144553 0.030661 0
1.132341 0.000983 0
1.125646 -0.031698 0
1.125663 -0.064396 0
1.133351 -0.092707 0
1.149690 -0.112133 0
1.175472 -0.118653 0
1.209855 -0.109243 0
1.249111 -0.083311 0
1.286445 -0.044574 0
1.313547 -0.001460 0
1.324935 0.037812 0
1.322476 0.069781 0
1.309473 0.093944 0
1.288904 0.110614 0
1.263245 0.120494 0
1.234479 0.124361 0
1.204171 0.122910 0
1.173553 0.116711 0
1.143606 0.106256 0
1.115117 0.092053 0
1.088654 0.074745 0
1.064434 0.055192 0
1.042141 0.034434 0
1.020924 0.013442 0
0.999915 -0.007323 0
0.979252 -0.027961 0
0.961179 -0.048753 0
0.949427 -0.069826 0
0.947254 -0.090352 0
0.956094 -0.107895 0
0.975431 -0.118958 0
1.003468 -0.120155 0
1.037723 -0.109237 0
1.075309 -0.085770 0
1.112921 -0.051588 0
1.146579 -0.011384 0
1.171674 0.027952 0
1.186468 0.061522 0
1.191700 0.087543 0
1.188606 0.105135 0
1.178635 0.114097 0
1.163260 0.114866 0
1.143869 0.108466 0
1.121735 0.096420 0
1.097996 0.080584 0
1.073590 0.062923 0
1.049154 0.045245 0
1.025014 0.028873 0
1.001454 0.014340 0
0.979196 0.001188 0
0.959552 -0.011821 0
0.944341 -0.025896 0
0.935466 -0.041485 0
0.934103 -0.057947 0
0.940334 -0.073633 0
0.953375 -0.086429 0
0.971992 -0.094349 0
0.994822 -0.095916 0
1.020533 -0.090355 0
1.047865 -0.077733 0
1.075592 -0.059059 0
1.102422 -0.036341 0
1.126841 -0.012580 0
1.147079 0.008464 0
1.162221 0.023842 0
1.172438 0.032148 0
1.177990 0.031399 0
1.178515 0.029595 0
1.000000 -0.000014 0
1.001120 -0.023876 0
1.004713 -0.049699 0
1.011772 -0.079596 0
1.024442 -0.115612 0
1.046745 -0.159145 0
1.085672 -0.208788 0
1.150850 -0.261445 0
1.264551 -0.274967 0
1.335531 -0.234263 0
1.367048 -0.181246 0
1.379654 -0.134793 0
1.382578 -0.097569 0
1.379342 -0.069502 0
1.372492 -0.050647 0
1.365285 -0.040392 0
1.361999 -0.036004 0
1.366638 -0.031697 0
1.379615 -0.020280 0
1.395203 0.001483 0
1.403536 0.030460 0
1.401356 0.061446 0
1.389412 0.090419 0
1.369608 0.114853 0
1.343714 0.133477 0
1.313267 0.145625 0
1.279740 0.150921 0
1.244676 0.149216 0
1.209661 0.140629 0
1.176165 0.125583 0
1.145281 0.104736 0
1.117549 0.078844 0
1.092939 0.048758 0
1.070563 0.015285 0
1.048330 -0.021403 0
1.025743 -0.059644 0
1.008423 -0.095652 0
1.003251 -0.125454 0
1.014864 -0.144217 0
1.043760 -0.146216 0
1.086717 -0.127037 0
1.137451 -0.086525 0
1.186895 -0.031450 0
1.224311 0.024367 0
1.244083 0.070618 0
1.249294 0.105587 0
1.243240 0.130039 0
1.228720 0.145221 0
1.208066 0.152403 0
1.183208 0.152695 0
1.155732 0.146997 0
1.126934 0.136058 0
1.097800 0.120650 0
1.068806 0.101811 0
1.039574 0.081018 0
1.008801 0.059990 0
0.975191 0.039945 0
0.939237 0.020617 0
0.904240 -0.000389 0
0.875375 -0.026080 0
0.857729 -0.056966 0
0.853564 -0.089982 0
0.861984 -0.119931 0
0.880775 -0.141549 0
0.907654 -0.150804 0
0.940554 -0.145344 0
0.977476 -0.124683 0
1.016283 -0.090384 0
1.054463 -0.046155 0
1.088467 0.001395 0
1.114105 0.044894 0
1.130489 0.080255 0
1.138062 0.106124 0
1.137696 0.122096 0
1.130457 0.128563 0
1.117453 0.126592 0
1.099733 0.117804 0
1.078188 0.104244 0
1.053476 0.088158 0
1.026096 0.071606 0
0.996726 0.055887 0
0.966726 0.041051 0
0.938383 0.025947 0
0.914469 0.008872 0
0.897340 -0.011495 0
0.888330 -0.034996 0
0.887560 -0.059712 0
0.894140 -0.082871 0
0.906761 -0.101819 0
0.924128 -0.114486 0
0.945107 -0.119506 0
0.968719 -0.116249 0
0.994073 -0.104879 0
1.020304 -0.086429 0
1.046501 -0.062823 0
1.071628 -0.036804 0
1.094372 -0.011776 0
1.113064 0.008613 0
1.126808 0.021980 0
1.135503 0.026605 0
1.138322 0.028182 0
1.000000 -0.000017 0
0.999942 -0.025216 0
0.999892 -0.052974 0
1.000539 -0.086417 0
1.003680 -0.129394 0
1.013531 -0.186590 0
1.039697 -0.261235 0
1.101821 -0.363749 0
1.264181 -0.378200 0
1.311369 -0.279073 0
1.298192 -0.191249 0
1.278889 -0.131716 0
1.260063 -0.088392 0
1.239807 -0.056473 0
1.217270 -0.036183 0
1.193617 -0.028563 0
1.173191 -0.032216 0
1.164697 -0.039820 0
1.174884 -0.038295 0
1.202105 -0.016275 0
1.231628 0.022431 0
1.246641 0.064856 0
1.248967 0.103445 0
1.242070 0.135349 0
1.227694 0.159770 0
1.206811 0.176309 0
1.180440 0.184572 0
1.149954 0.184289 0
1.117026 0.175586 0
1.083149 0.159192 0
1.048560 0.136391 0
1.011210 0.108658 0
0.967806 0.077650 0
0.917677 0.045595 0
0.865630 0.013124 0
0.819735 -0.024487 0
0.789348 -0.070214 0
0.780763 -0.118572 0
0.793591 -0.159160 0
0.824930 -0.181094 0
0.871362 -0.177001 0
0.928925 -0.144751 0
0.992311 -0.088319 0
1.053451 -0.019375 0
1.101003 0.044797 0
1.131099 0.094786 0
1.146573 0.131188 0
1.149994 0.155668 0
1.143618 0.169873 0
1.129460 0.175244 0
1.109259 0.172985 0
1.084360 0.164188 0
1.055447 0.150181 0
1.022240 0.132972 0
0.983680 0.115199 0
0.939260 0.098820 0
0.891137 0.083009 0
0.845031 0.063630 0
0.808271 0.035902 0
0.785786 -0.002240 0
0.778051 -0.048013 0
0.782277 -0.094606 0
0.795129 -0.135104 0
0.814329 -0.164626 0
0.838706 -0.179933 0
0.867604 -0.179059 0
0.900290 -0.161499 0
0.935637 -0.128574 0
0.972075 -0.083568 0
1.007541 -0.031690 0
1.038470 0.019501 0
1.061816 0.063586 0
1.077038 0.097927 0
1.084262 0.121701 0
1.083978 0.135108 0
1.076810 0.139189 0
1.063358 0.135683 0
1.044113 0.126838 0
1.019535 0.115012 0
0.990417 0.101992 0
0.958406 0.088240 0
0.926273 0.072680 0
0.897508 0.053442 0
0.875318 0.029220 0
0.861535 0.000240 0
0.856134 -0.031707 0
0.857910 -0.063758 0
0.865346 -0.092836 0
0.877138 -0.116419 0
0.892340 -0.132696 0
0.910285 -0.140507 0
0.930448 -0.139321 0
0.952311 -0.129317 0
0.975286 -0.111486 0
0.998677 -0.087665 0
1.021665 -0.060451 0
1.043262 -0.032972 0
1.062221 -0.008593 0
1.077041 0.009711 0
1.087004 0.019887 0
1.091115 0.024972 0
1.000000 -0.000020 0
0.998519 -0.023765 0
0.993954 -0.050293 0
0.986130 -0.083381 0
0.975148 -0.128600 0
0.962451 -0.195159 0
0.954299 -0.297075 0
0.972704 -0.485926 0
1.130567 -0.484511 0
1.118093 -0.268270 0
1.015220 -0.148762 0
0.958699 -0.096661 0
0.923027 -0.058485 0
0.889529 -0.026706 0
0.846374 -0.004456 0
0.799499 0.003687 0
0.758753 -0.007084 0
0.735646 -0.033391 0
0.745428 -0.057688 0
0.790627 -0.055261 0
0.857613 -0.014076 0
0.920550 0.044106 0
0.962353 0.094989 0
0.988150 0.136125 0
1.001572 0.168736 0
1.003048 0.192880 0
0.993058 0.207780 0
0.972338 0.212632 0
0.941360 0.207438 0
0.899790 0.194053 0
0.846800 0.176678 0
0.782970 0.159601 0
0.712864 0.142294 0
0.646111 0.117463 0
0.595379 0.076541 0
0.570036 0.016639 0
0.568672 -0.056678 0
0.584020 -0.129694 0
0.610506 -0.188382 0
0.646111 -0.223987 0
0.691001 -0.231031 0
0.745340 -0.207474 0
0.807759 -0.155976 0
0.874703 -0.084324 0
0.938691 -0.007030 0
0.989004 0.060017 0
1.023680 0.111144 0
1.044458 0.148174 0
1.052921 0.172936 0
1.050601 0.187054 0
1.038804 0.192098 0
1.018304 0.189872 0
0.989099 0.182771 0
0.950735 0.173579 0
0.903779 0.164000 0
0.851935 0.152535 0
0.802589 0.134176 0
0.764122 0.103486 0
0.741691 0.058858 0
0.735262 0.004141 0
0.740356 -0.053456 0
0.751593 -0.107058 0
0.765852 -0.151982 0
0.782129 -0.185125 0
0.800719 -0.204079 0
0.822402 -0.206927 0
0.847718 -0.192715 0
0.876474 -0.162168 0
0.907680 -0.118058 0
0.939762 -0.065000 0
0.970581 -0.009381 0
0.996562 0.041687 0
1.015902 0.083678 0
1.027961 0.115155 0
1.032582 0.136015 0
1.029826 0.147210 0
1.019840 0.150499 0
1.002904 0.148065 0
0.979723 0.141852 0
0.951879 0.132733 0
0.922088 0.120030 0
0.893850 0.101947 0
0.870495 0.076900 0
0.854173 0.044843 0
0.845453 0.007688 0
0.843563 -0.031372 0
0.846937 -0.068923 0
0.854083 -0.102098 0
0.863950 -0.128812 0
0.875941 -0.147632 0
0.889787 -0.157613 0
0.905378 -0.158272 0
0.922573 -0.149714 0
0.941071 -0.132792 0
0.960364 -0.109199 0
0.979757 -0.081386 0
0.998391 -0.052328 0
1.015267 -0.025161 0
1.029186 -0.002799 0
1.038958 0.012534 0
1.043507 0.020881 0
1.000000 -0.000023 0
0.997146 -0.019168 0
0.988152 -0.040583 0
0.971643 -0.067608 0
0.944935 -0.105712 0
0.903198 -0.165739 0
0.837565 -0.271486 0
0.732295 -0.540014 0
0.547195 -0.523585 0
0.000357 -0.163723 0
0.399756 -0.031852 0
0.331464 -0.039521 0
0.317520 -0.019220 0
0.307151 0.020181 0
0.281357 0.053847 0
0.244864 0.059058 0
0.216955 0.031638 0
0.215073 -0.026495 0
0.247383 -0.093277 0
0.312389 -0.128460 0
0.403314 -0.107493 0
0.506067 -0.039885 0
0.598093 0.035845 0
0.665177 0.096131 0
0.710535 0.144873 0
0.736236 0.184825 0
0.742568 0.215284 0
0.729557 0.235990 0
0.697063 0.248137 0
0.645929 0.253756 0
0.580637 0.253215 0
0.511868 0.242595 0
0.454996 0.214510 0
0.423164 0.163082 0
0.420371 0.089203 0
0.440800 0.002222 0
0.471018 -0.084196 0
0.500525 -0.160404 0
0.527379 -0.221250 0
0.554230 -0.261588 0
0.585534 -0.276230 0
0.625340 -0.261509 0
0.675323 -0.217683 0
0.733960 -0.150307 0
0.797070 -0.069504 0
0.856091 0.009797 0
0.902246 0.075734 0
0.934671 0.126427 0
0.953906 0.163730 0
0.960600 0.189361 0
0.955257 0.205282 0
0.938082 0.213894 0
0.909317 0.217752 0
0.870429 0.218294 0
0.825712 0.214002 0
0.782587 0.200012 0
0.749167 0.170824 0
0.730413 0.124529 0
0.726192 0.064763 0
0.732657 -0.000904 0
0.744550 -0.064343 0
0.757726 -0.120100 0
0.770072 -0.165639 0
0.781187 -0.199492 0
0.791987 -0.220205 0
0.804192 -0.226057 0
0.819563 -0.215570 0
0.839083 -0.188535 0
0.862526 -0.146855 0
0.888629 -0.094591 0
0.915534 -0.037299 0
0.940555 0.018265 0
0.960836 0.066527 0
0.975032 0.105020 0
0.982397 0.133242 0
0.982531 0.151930 0
0.975332 0.162604 0
0.961191 0.166953 0
0.941328 0.166036 0
0.918041 0.159627 0
0.894481 0.146268 0
0.873868 0.124272 0
0.858513 0.093119 0
0.849291 0.054262 0
0.845817 0.010850 0
0.847006 -0.033190 0
0.851440 -0.074276 0
0.857880 -0.109847 0
0.865490 -0.138272 0
0.873886 -0.158529 0
0.883075 -0.169941 0
0.893311 -0.172102 0
0.904875 -0.165004 0
0.917850 -0.149272 0
0.932006 -0.126345 0
0.946801 -0.098471 0
0.961461 -0.068476 0
0.975072 -0.039381 0
0.986648 -0.013974 0
0.995128 0.005574 0
0.999444 0.016659 0
1.000000 -0.000024 0
0.996216 -0.011914 0
0.984230 -0.024788 0
0.961849 -0.040161 0
0.924467 -0.060153 0
0.862868 -0.087786 0
0.757441 -0.126170 0
0.564972 -0.195554 0
0.073778 -0.000185 0
-0.531983 0.121804 0
0.000000 -0.000068 0
-0.031405 -0.024872 0
-0.048596 -0.034170 0
-0.078199 0.009458 0
-0.107241 0.057831 0
-0.131003 0.068089 0
-0.136054 0.022707 0
-0.109394 -0.063819 0
-0.063617 -0.155005 0
-0.004569 -0.211194 0
0.073012 -0.207755 0
0.168342 -0.150672 0
0.271908 -0.064121 0
0.362985 0.023684 0
0.428250 0.097678 0
0.469184 0.160849 0
0.487047 0.214462 0
0.482675 0.258140 0
0.458565 0.291068 0
0.421216 0.310483 0
0.382210 0.310742 0
0.355644 0.285244 0
0.352113 0.231000 0
0.373548 0.152090 0
0.412985 0.058908 0
0.456715 -0.034005 0
0.493387 -0.116401 0
0.519921 -0.186054 0
0.536687 -0.242087 0
0.546998 -0.282141 0
0.556684 -0.302140 0
0.572662 -0.297262 0
0.600332 -0.264596 0
0.641104 -0.206072 0
0.691936 -0.129161 0
0.746842 -0.045160 0
0.796142 0.032564 0
0.833646 0.096515 0
0.858433 0.147007 0
0.870259 0.185704 0
0.869102 0.214617 0
0.855384 0.235813 0
0.830790 0.250426 0
0.799367 0.257187 0
0.767759 0.251845 0
0.743414 0.229081 0
0.731384 0.186352 0
0.732275 0.126463 0
0.743020 0.056615 0
0.759074 -0.014215 0
0.775694 -0.078522 0
0.789973 -0.132580 0
0.800395 -0.175442 0