# vtk DataFile Version 2.0
generated by CFD-lab course output (written by Tobias Neckel) 
ASCII

DATASET STRUCTURED_GRID
DIMENSIONS  101 21 1 
POINTS 2121 float

0.000000 0.000000 0
0.100000 0.000000 0
0.200000 0.000000 0
0.300000 0.000000 0
0.400000 0.000000 0
0.500000 0.000000 0
0.600000 0.000000 0
0.700000 0.000000 0
0.800000 0.000000 0
0.900000 0.000000 0
1.000000 0.000000 0
1.100000 0.000000 0
1.200000 0.000000 0
1.300000 0.000000 0
1.400000 0.000000 0
1.500000 0.000000 0
1.600000 0.000000 0
1.700000 0.000000 0
1.800000 0.000000 0
1.900000 0.000000 0
2.000000 0.000000 0
2.100000 0.000000 0
2.200000 0.000000 0
2.300000 0.000000 0
2.400000 0.000000 0
2.500000 0.000000 0
2.600000 0.000000 0
2.700000 0.000000 0
2.800000 0.000000 0
2.900000 0.000000 0
3.000000 0.000000 0
3.100000 0.000000 0
3.200000 0.000000 0
3.300000 0.000000 0
3.400000 0.000000 0
3.500000 0.000000 0
3.600000 0.000000 0
3.700000 0.000000 0
3.800000 0.000000 0
3.900000 0.000000 0
4.000000 0.000000 0
4.100000 0.000000 0
4.200000 0.000000 0
4.300000 0.000000 0
4.400000 0.000000 0
4.500000 0.000000 0
4.600000 0.000000 0
4.700000 0.000000 0
4.800000 0.000000 0
4.900000 0.000000 0
5.000000 0.000000 0
5.100000 0.000000 0
5.200000 0.000000 0
5.300000 0.000000 0
5.400000 0.000000 0
5.500000 0.000000 0
5.600000 0.000000 0
5.700000 0.000000 0
5.800000 0.000000 0
5.900000 0.000000 0
6.000000 0.000000 0
6.100000 0.000000 0
6.200000 0.000000 0
6.300000 0.000000 0
6.400000 0.000000 0
6.500000 0.000000 0
6.600000 0.000000 0
6.700000 0.000000 0
6.800000 0.000000 0
6.900000 0.000000 0
7.000000 0.000000 0
7.100000 0.000000 0
7.200000 0.000000 0
7.300000 0.000000 0
7.400000 0.000000 0
7.500000 0.000000 0
7.600000 0.000000 0
7.700000 0.000000 0
7.800000 0.000000 0
7.900000 0.000000 0
8.000000 0.000000 0
8.100000 0.000000 0
8.200000 0.000000 0
8.300000 0.000000 0
8.400000 0.000000 0
8.500000 0.000000 0
8.600000 0.000000 0
8.700000 0.000000 0
8.800000 0.000000 0
8.900000 0.000000 0
9.000000 0.000000 0
9.100000 0.000000 0
9.200000 0.000000 0
9.300000 0.000000 0
9.400000 0.000000 0
9.500000 0.000000 0
9.600000 0.000000 0
9.700000 0.000000 0
9.800000 0.000000 0
9.900000 0.000000 0
10.000000 0.000000 0
0.000000 0.100000 0
0.100000 0.100000 0
0.200000 0.100000 0
0.300000 0.100000 0
0.400000 0.100000 0
0.500000 0.100000 0
0.600000 0.100000 0
0.700000 0.100000 0
0.800000 0.100000 0
0.900000 0.100000 0
1.000000 0.100000 0
1.100000 0.100000 0
1.200000 0.100000 0
1.300000 0.100000 0
1.400000 0.100000 0
1.500000 0.100000 0
1.600000 0.100000 0
1.700000 0.100000 0
1.800000 0.100000 0
1.900000 0.100000 0
2.000000 0.100000 0
2.100000 0.100000 0
2.200000 0.100000 0
2.300000 0.100000 0
2.400000 0.100000 0
2.500000 0.100000 0
2.600000 0.100000 0
2.700000 0.100000 0
2.800000 0.100000 0
2.900000 0.100000 0
3.000000 0.100000 0
3.100000 0.100000 0
3.200000 0.100000 0
3.300000 0.100000 0
3.400000 0.100000 0
3.500000 0.100000 0
3.600000 0.100000 0
3.700000 0.100000 0
3.800000 0.100000 0
3.900000 0.100000 0
4.000000 0.100000 0
4.100000 0.100000 0
4.200000 0.100000 0
4.300000 0.100000 0
4.400000 0.100000 0
4.500000 0.100000 0
4.600000 0.100000 0
4.700000 0.100000 0
4.800000 0.100000 0
4.900000 0.100000 0
5.000000 0.100000 0
5.100000 0.100000 0
5.200000 0.100000 0
5.300000 0.100000 0
5.400000 0.100000 0
5.500000 0.100000 0
5.600000 0.100000 0
5.700000 0.100000 0
5.800000 0.100000 0
5.900000 0.100000 0
6.000000 0.100000 0
6.100000 0.100000 0
6.200000 0.100000 0
6.300000 0.100000 0
6.400000 0.100000 0
6.500000 0.100000 0
6.600000 0.100000 0
6.700000 0.100000 0
6.800000 0.100000 0
6.900000 0.100000 0
7.000000 0.100000 0
7.100000 0.100000 0
7.200000 0.100000 0
7.300000 0.100000 0
7.400000 0.100000 0
7.500000 0.100000 0
7.600000 0.100000 0
7.700000 0.100000 0
7.800000 0.100000 0
7.900000 0.100000 0
8.000000 0.100000 0
8.100000 0.100000 0
8.200000 0.100000 0
8.300000 0.100000 0
8.400000 0.100000 0
8.500000 0.100000 0
8.600000 0.100000 0
8.700000 0.100000 0
8.800000 0.100000 0
8.900000 0.100000 0
9.000000 0.100000 0
9.100000 0.100000 0
9.200000 0.100000 0
9.300000 0.100000 0
9.400000 0.100000 0
9.500000 0.100000 0
9.600000 0.100000 0
9.700000 0.100000 0
9.800000 0.100000 0
9.900000 0.100000 0
10.000000 0.100000 0
0.000000 0.200000 0
0.100000 0.200000 0
0.200000 0.200000 0
0.300000 0.200000 0
0.400000 0.200000 0
0.500000 0.200000 0
0.600000 0.200000 0
0.700000 0.200000 0
0.800000 0.200000 0
0.900000 0.200000 0
1.000000 0.200000 0
1.100000 0.200000 0
1.200000 0.200000 0
1.300000 0.200000 0
1.400000 0.200000 0
1.500000 0.200000 0
1.600000 0.200000 0
1.700000 0.200000 0
1.800000 0.200000 0
1.900000 0.200000 0
2.000000 0.200000 0
2.100000 0.200000 0
2.200000 0.200000 0
2.300000 0.200000 0
2.400000 0.200000 0
2.500000 0.200000 0
2.600000 0.200000 0
2.700000 0.200000 0
2.800000 0.200000 0
2.900000 0.200000 0
3.000000 0.200000 0
3.100000 0.200000 0
3.200000 0.200000 0
3.300000 0.200000 0
3.400000 0.200000 0
3.500000 0.200000 0
3.600000 0.200000 0
3.700000 0.200000 0
3.800000 0.200000 0
3.900000 0.200000 0
4.000000 0.200000 0
4.100000 0.200000 0
4.200000 0.200000 0
4.300000 0.200000 0
4.400000 0.200000 0
4.500000 0.200000 0
4.600000 0.200000 0
4.700000 0.200000 0
4.800000 0.200000 0
4.900000 0.200000 0
5.000000 0.200000 0
5.100000 0.200000 0
5.200000 0.200000 0
5.300000 0.200000 0
5.400000 0.200000 0
5.500000 0.200000 0
5.600000 0.200000 0
5.700000 0.200000 0
5.800000 0.200000 0
5.900000 0.200000 0
6.000000 0.200000 0
6.100000 0.200000 0
6.200000 0.200000 0
6.300000 0.200000 0
6.400000 0.200000 0
6.500000 0.200000 0
6.600000 0.200000 0
6.700000 0.200000 0
6.800000 0.200000 0
6.900000 0.200000 0
7.000000 0.200000 0
7.100000 0.200000 0
7.200000 0.200000 0
7.300000 0.200000 0
7.400000 0.200000 0
7.500000 0.200000 0
7.600000 0.200000 0
7.700000 0.200000 0
7.800000 0.200000 0
7.900000 0.200000 0
8.000000 0.200000 0
8.100000 0.200000 0
8.200000 0.200000 0
8.300000 0.200000 0
8.400000 0.200000 0
8.500000 0.200000 0
8.600000 0.200000 0
8.700000 0.200000 0
8.800000 0.200000 0
8.900000 0.200000 0
9.000000 0.200000 0
9.100000 0.200000 0
9.200000 0.200000 0
9.300000 0.200000 0
9.400000 0.200000 0
9.500000 0.200000 0
9.600000 0.200000 0
9.700000 0.200000 0
9.800000 0.200000 0
9.900000 0.200000 0
10.000000 0.200000 0
0.000000 0.300000 0
0.100000 0.300000 0
0.200000 0.300000 0
0.300000 0.300000 0
0.400000 0.300000 0
0.500000 0.300000 0
0.600000 0.300000 0
0.700000 0.300000 0
0.800000 0.300000 0
0.900000 0.300000 0
1.000000 0.300000 0
1.100000 0.300000 0
1.200000 0.300000 0
1.300000 0.300000 0
1.400000 0.300000 0
1.500000 0.300000 0
1.600000 0.300000 0
1.700000 0.300000 0
1.800000 0.300000 0
1.900000 0.300000 0
2.000000 0.300000 0
2.100000 0.300000 0
2.200000 0.300000 0
2.300000 0.300000 0
2.400000 0.300000 0
2.500000 0.300000 0
2.600000 0.300000 0
2.700000 0.300000 0
2.800000 0.300000 0
2.900000 0.300000 0
3.000000 0.300000 0
3.100000 0.300000 0
3.200000 0.300000 0
3.300000 0.300000 0
3.400000 0.300000 0
3.500000 0.300000 0
3.600000 0.300000 0
3.700000 0.300000 0
3.800000 0.300000 0
3.900000 0.300000 0
4.000000 0.300000 0
4.100000 0.300000 0
4.200000 0.300000 0
4.300000 0.300000 0
4.400000 0.300000 0
4.500000 0.300000 0
4.600000 0.300000 0
4.700000 0.300000 0
4.800000 0.300000 0
4.900000 0.300000 0
5.000000 0.300000 0
5.100000 0.300000 0
5.200000 0.300000 0
5.300000 0.300000 0
5.400000 0.300000 0
5.500000 0.300000 0
5.600000 0.300000 0
5.700000 0.300000 0
5.800000 0.300000 0
5.900000 0.300000 0
6.000000 0.300000 0
6.100000 0.300000 0
6.200000 0.300000 0
6.300000 0.300000 0
6.400000 0.300000 0
6.500000 0.300000 0
6.600000 0.300000 0
6.700000 0.300000 0
6.800000 0.300000 0
6.900000 0.300000 0
7.000000 0.300000 0
7.100000 0.300000 0
7.200000 0.300000 0
7.300000 0.300000 0
7.400000 0.300000 0
7.500000 0.300000 0
7.600000 0.300000 0
7.700000 0.300000 0
7.800000 0.300000 0
7.900000 0.300000 0
8.000000 0.300000 0
8.100000 0.300000 0
8.200000 0.300000 0
8.300000 0.300000 0
8.400000 0.300000 0
8.500000 0.300000 0
8.600000 0.300000 0
8.700000 0.300000 0
8.800000 0.300000 0
8.900000 0.300000 0
9.000000 0.300000 0
9.100000 0.300000 0
9.200000 0.300000 0
9.300000 0.300000 0
9.400000 0.300000 0
9.500000 0.300000 0
9.600000 0.300000 0
9.700000 0.300000 0
9.800000 0.300000 0
9.900000 0.300000 0
10.000000 0.300000 0
0.000000 0.400000 0
0.100000 0.400000 0
0.200000 0.400000 0
0.300000 0.400000 0
0.400000 0.400000 0
0.500000 0.400000 0
0.600000 0.400000 0
0.700000 0.400000 0
0.800000 0.400000 0
0.900000 0.400000 0
1.000000 0.400000 0
1.100000 0.400000 0
1.200000 0.400000 0
1.300000 0.400000 0
1.400000 0.400000 0
1.500000 0.400000 0
1.600000 0.400000 0
1.700000 0.400000 0
1.800000 0.400000 0
1.900000 0.400000 0
2.000000 0.400000 0
2.100000 0.400000 0
2.200000 0.400000 0
2.300000 0.400000 0
2.400000 0.400000 0
2.500000 0.400000 0
2.600000 0.400000 0
2.700000 0.400000 0
2.800000 0.400000 0
2.900000 0.400000 0
3.000000 0.400000 0
3.100000 0.400000 0
3.200000 0.400000 0
3.300000 0.400000 0
3.400000 0.400000 0
3.500000 0.400000 0
3.600000 0.400000 0
3.700000 0.400000 0
3.800000 0.400000 0
3.900000 0.400000 0
4.000000 0.400000 0
4.100000 0.400000 0
4.200000 0.400000 0
4.300000 0.400000 0
4.400000 0.400000 0
4.500000 0.400000 0
4.600000 0.400000 0
4.700000 0.400000 0
4.800000 0.400000 0
4.900000 0.400000 0
5.000000 0.400000 0
5.100000 0.400000 0
5.200000 0.400000 0
5.300000 0.400000 0
5.400000 0.400000 0
5.500000 0.400000 0
5.600000 0.400000 0
5.700000 0.400000 0
5.800000 0.400000 0
5.900000 0.400000 0
6.000000 0.400000 0
6.100000 0.400000 0
6.200000 0.400000 0
6.300000 0.400000 0
6.400000 0.400000 0
6.500000 0.400000 0
6.600000 0.400000 0
6.700000 0.400000 0
6.800000 0.400000 0
6.900000 0.400000 0
7.000000 0.400000 0
7.100000 0.400000 0
7.200000 0.400000 0
7.300000 0.400000 0
7.400000 0.400000 0
7.500000 0.400000 0
7.600000 0.400000 0
7.700000 0.400000 0
7.800000 0.400000 0
7.900000 0.400000 0
8.000000 0.400000 0
8.100000 0.400000 0
8.200000 0.400000 0
8.300000 0.400000 0
8.400000 0.400000 0
8.500000 0.400000 0
8.600000 0.400000 0
[...]
POINT_DATA 2121 

VECTORS velocity float
0.500000 0.000000 0
-0.000001 0.000000 0
-0.000008 0.000000 0
-0.000022 0.000000 0
-0.000042 0.000000 0
-0.000070 0.000000 0
-0.000103 0.000000 0
-0.000142 0.000000 0
-0.000182 0.000000 0
-0.000219 0.000000 0
-0.000243 0.000000 0
-0.000243 0.000000 0
-0.000206 0.000000 0
-0.000117 0.000000 0
0.000038 0.000000 0
0.000244 0.000000 0
0.000515 0.000000 0
0.000809 0.000000 0
0.001101 0.000000 0
0.001352 0.000000 0
0.001527 0.000000 0
0.001595 0.000000 0
0.001536 0.000000 0
0.001334 0.000000 0
0.000984 0.000000 0
0.000492 0.000000 0
-0.000133 0.000000 0
-0.000870 0.000000 0
-0.001693 0.000000 0
-0.002540 0.000000 0
-0.003285 0.000000 0
-0.003781 0.000000 0
-0.003891 0.000000 0
-0.003535 0.000000 0
-0.002741 0.000000 0
-0.001651 0.000000 0
-0.000458 0.000000 0
0.000716 0.000000 0
0.001781 0.000000 0
0.002673 0.000000 0
0.003360 0.000000 0
0.003834 0.000000 0
0.004097 0.000000 0
0.004156 0.000000 0
0.004018 0.000000 0
0.003685 0.000000 0
0.003157 0.000000 0
0.002429 0.000000 0
0.001486 0.000000 0
0.000323 0.000000 0
-0.001001 0.000000 0
-0.002341 0.000000 0
-0.003619 0.000000 0
-0.004761 0.000000 0
-0.005679 0.000000 0
-0.006264 0.000000 0
-0.006398 0.000000 0
-0.005975 0.000000 0
-0.004946 0.000000 0
-0.003389 0.000000 0
-0.001545 0.000000 0
0.000297 0.000000 0
0.002021 0.000000 0
0.003535 0.000000 0
0.004754 0.000000 0
0.005619 0.000000 0
0.006096 0.000000 0
0.006178 0.000000 0
0.005875 0.000000 0
0.005211 0.000000 0
0.004226 0.000000 0
0.002978 0.000000 0
0.001559 0.000000 0
0.000111 0.000000 0
-0.001129 0.000000 0
-0.002115 0.000000 0
-0.002893 0.000000 0
-0.003518 0.000000 0
-0.004034 0.000000 0
-0.004461 0.000000 0
-0.004783 0.000000 0
-0.004949 0.000000 0
-0.004869 0.000000 0
-0.004444 0.000000 0
-0.003599 0.000000 0
-0.002347 0.000000 0
-0.000819 0.000000 0
0.000806 0.000000 0
0.002451 0.000000 0
0.004024 0.000000 0
0.005407 0.000000 0
0.006471 0.000000 0
0.007084 0.000000 0
0.007140 0.000000 0
0.006604 0.000000 0
0.005557 0.000000 0
0.004191 0.000000 0
0.002771 0.000000 0
0.001579 0.000000 0
0.000852 0.000000 0
0.000564 0.000000 0
1.000000 0.000003 0
1.002543 -0.004611 0
1.010467 -0.010061 0
1.024210 -0.016042 0
1.044256 -0.022363 0
1.070946 -0.028665 0
1.104168 -0.034308 0
1.142955 -0.038395 0
1.185191 -0.039999 0
1.227486 -0.038752 0
1.266699 -0.035142 0
1.300864 -0.030053 0
1.329117 -0.024252 0
1.351234 -0.018185 0
1.367213 -0.012032 0
1.377052 -0.005852 0
1.380700 0.000265 0
1.378210 0.006165 0
1.369836 0.011642 0
1.356123 0.016423 0
1.337922 0.020240 0
1.316358 0.022868 0
1.292759 0.024150 0
1.268571 0.024007 0
1.245274 0.022434 0
1.224311 0.019494 0
1.207018 0.015297 0
1.194592 0.009987 0
1.188057 0.003749 0
1.188175 -0.002986 0
1.195234 -0.009406 0
1.208659 -0.014487 0
1.226715 -0.017216 0
1.246551 -0.016908 0
1.264721 -0.013532 0
1.278033 -0.007801 0
1.284332 -0.000820 0
1.282799 0.006455 0
1.273625 0.013341 0
1.257643 0.019346 0
1.236060 0.024177 0
1.210238 0.027698 0
1.181581 0.029871 0
1.151466 0.030706 0
1.121227 0.030227 0
1.092164 0.028449 0
1.065547 0.025363 0
1.042620 0.020925 0
1.024563 0.015055 0
1.012433 0.007743 0
1.007077 -0.000614 0
1.009097 -0.009239 0
1.018768 -0.017461 0
1.035948 -0.024773 0
1.059970 -0.030641 0
1.089611 -0.034479 0
1.123084 -0.035673 0
1.157992 -0.033680 0
1.191329 -0.028256 0
1.219682 -0.019786 0
1.239769 -0.009458 0
1.249232 0.001267 0
1.247436 0.011438 0
1.235245 0.020515 0
1.214132 0.028017 0
1.185993 0.033576 0
1.152994 0.036955 0
1.117436 0.038045 0
1.081630 0.036832 0
1.047784 0.033385 0
1.017884 0.027867 0
0.993527 0.020590 0
0.975745 0.012092 0
0.964888 0.003269 0
0.960714 -0.004683 0
0.962606 -0.011099 0
0.969685 -0.016101 0
0.981136 -0.020005 0
0.996313 -0.023091 0
1.014751 -0.025519 0
1.036085 -0.027272 0
1.059892 -0.028121 0
1.085464 -0.027645 0
1.111617 -0.025339 0
1.136614 -0.020833 0
1.158248 -0.014173 0
1.174121 -0.005990 0
1.182123 0.002838 0
1.181156 0.011678 0
1.171426 0.020032 0
1.153798 0.027278 0
1.129755 0.032710 0
1.101367 0.035604 0
1.071180 0.035367 0
1.041958 0.031786 0
1.016263 0.025263 0
0.995955 0.016894 0
0.981793 0.008345 0
0.973299 0.001556 0
0.968964 0.000276 0
0.964754 0.001418 0
1.000000 0.000005 0
1.002856 -0.010482 0
1.011221 -0.021684 0
1.025489 -0.033809 0
1.046358 -0.046755 0
1.074597 -0.059927 0
1.110633 -0.072020 0
1.153894 -0.081026 0
1.202230 -0.084514 0
1.250123 -0.081473 0
1.293156 -0.073340 0
1.329461 -0.062386 0
1.358842 -0.050348 0
1.381723 -0.038089 0
1.398503 -0.025808 0
1.409228 -0.013470 0
1.413675 -0.001144 0
1.411751 0.010873 0
1.403582 0.022091 0
1.389675 0.031915 0
1.370936 0.039761 0
1.348583 0.045155 0
1.324048 0.047777 0
1.298877 0.047472 0
1.274636 0.044245 0
1.252818 0.038241 0
1.234785 0.029703 0
1.221734 0.018946 0
1.214744 0.006403 0
1.214816 -0.007185 0
1.222691 -0.020482 0
1.238231 -0.031471 0
1.259847 -0.037873 0
1.284405 -0.037981 0
1.307733 -0.031455 0
1.325660 -0.019586 0
1.335284 -0.004745 0
1.335778 0.010721 0
1.327773 0.025162 0
1.312496 0.037569 0
1.291430 0.047410 0
1.266105 0.054482 0
1.237983 0.058775 0
1.208423 0.060355 0
1.178688 0.059301 0
1.149968 0.055678 0
1.123385 0.049541 0
1.099959 0.040980 0
1.080551 0.030182 0
1.065790 0.017480 0
1.056103 0.003329 0
1.052022 -0.011698 0
1.054137 -0.026858 0
1.062758 -0.041208 0
1.077831 -0.053668 0
1.099025 -0.063115 0
1.125762 -0.068378 0
1.156995 -0.068239 0
1.190850 -0.061682 0
1.224412 -0.048430 0
1.253819 -0.029537 0
1.274869 -0.007655 0
1.284534 0.013997 0
1.282681 0.033312 0
1.270802 0.049257 0
1.250822 0.061140 0
1.224915 0.068555 0
1.195331 0.071361 0
1.164254 0.069648 0
1.133659 0.063742 0
1.105165 0.054252 0
1.079915 0.042134 0
1.058518 0.028635 0
1.041133 0.015026 0
1.027783 0.002276 0
1.018646 -0.008976 0
1.013660 -0.018535 0
1.012587 -0.026635 0
1.015275 -0.033621 0
1.021784 -0.039777 0
1.032366 -0.045146 0
1.047265 -0.049382 0
1.066423 -0.051727 0
1.089244 -0.051151 0
1.114500 -0.046632 0
1.140337 -0.037508 0
1.164314 -0.023875 0
1.183606 -0.007036 0
1.195733 0.010697 0
1.199691 0.027358 0
1.196053 0.041670 0
1.185973 0.052430 0
1.171002 0.058574 0
1.152884 0.059408 0
1.133314 0.054916 0
1.113732 0.046001 0
1.095211 0.034468 0
1.078457 0.022654 0
1.063918 0.012827 0
1.051918 0.008543 0
1.043782 0.007887 0
1.000000 0.000007 0
1.002448 -0.015846 0
1.009969 -0.032702 0
1.023232 -0.051185 0
1.043425 -0.071473 0
1.072149 -0.092940 0
1.111036 -0.113600 0
1.160643 -0.129970 0
1.219855 -0.136197 0
1.276419 -0.129654 0
1.323470 -0.114471 0
1.360375 -0.095745 0
1.388782 -0.076529 0
1.410521 -0.057855 0
1.426717 -0.039529 0
1.437447 -0.021019 0
1.441995 -0.002260 0
1.439749 0.016258 0
1.430537 0.033714 0
1.414806 0.049064 0
1.393574 0.061328 0
1.368245 0.069752 0
1.340447 0.073850 0
1.311911 0.073413 0
1.284368 0.068487 0
1.259428 0.059340 0
1.238489 0.046379 0
1.222718 0.030024 0
1.213192 0.010668 0
1.211176 -0.010922 0
1.218059 -0.032807 0
1.234311 -0.051627 0
1.258684 -0.063373 0
1.288155 -0.064779 0
1.318143 -0.054777 0
1.343135 -0.035349 0
1.358303 -0.010941 0
1.361729 0.013956 0
1.354729 0.036616 0
1.339355 0.055689 0
1.317695 0.070568 0
1.291635 0.081144 0
1.262770 0.087552 0
1.232437 0.090000 0
1.201782 0.088680 0
1.171824 0.083750 0
1.143489 0.075371 0
1.117610 0.063756 0
1.094898 0.049221 0
1.075889 0.032189 0
1.060902 0.013153 0
1.050010 -0.007275 0
1.043247 -0.028199 0
1.040889 -0.048467 0
1.043443 -0.066905 0
1.051826 -0.082406 0
1.067172 -0.093637 0
1.090091 -0.098761 0
1.119965 -0.095666 0
1.154683 -0.082748 0
1.190722 -0.059910 0
1.223470 -0.029445 0
1.247882 0.003627 0
1.260484 0.034244 0
1.261774 0.059873 0
1.253447 0.079458 0
1.237501 0.092442 0
1.216014 0.098702 0
1.190976 0.098502 0
1.164154 0.092473 0
1.137005 0.081610 0
1.110658 0.067237 0
1.085965 0.050873 0
1.063544 0.034002 0
1.043726 0.017803 0
1.026516 0.003023 0
1.011833 -0.010044 0
0.999692 -0.021623 0
0.990612 -0.032290 0
0.985612 -0.042610 0
0.985878 -0.052753 0
0.992320 -0.062179 0
1.005153 -0.069623 0
1.023797 -0.073416 0
1.047037 -0.071925 0
1.073246 -0.063986 0
1.100532 -0.049259 0
1.126759 -0.028581 0
1.149423 -0.004408 0
1.166005 0.019711 0
1.175653 0.040996 0
1.178790 0.057761 0
1.176194 0.068692 0
1.168813 0.073054 0
1.157617 0.070936 0
1.143556 0.063364 0
1.127625 0.052168 0
1.110953 0.039637 0
1.094791 0.028094 0
1.080320 0.020411 0
1.070150 0.017351 0
1.000000 0.000009 0
1.001909 -0.020462 0
1.007937 -0.042473 0
1.019028 -0.067269 0
1.036967 -0.095672 0
1.064566 -0.127534 0
1.105651 -0.160499 0
1.163632 -0.189819 0
1.242977 -0.200271 0
1.310407 -0.185083 0
1.357650 -0.157301 0
1.389721 -0.127712 0
1.412262 -0.100505 0
1.429302 -0.076014 0
1.443085 -0.052726 0
1.453825 -0.028750 0
1.459606 -0.003447 0
1.458095 0.022329 0
1.448446 0.047031 0
1.431007 0.068874 0
1.407001 0.086318 0
1.378101 0.098278 0
1.346202 0.104105 0
1.313303 0.103545 0
1.281395 0.096725 0
1.252289 0.084118 0
1.227421 0.066410 0
1.207781 0.044243 0
1.193994 0.017954 0
1.186590 -0.012040 0
1.187102 -0.043603 0
1.197110 -0.072080 0
1.216761 -0.091703 0
1.245055 -0.097430 0
1.279291 -0.086430 0
1.314151 -0.059749 0
1.342066 -0.023348 0
1.356157 0.014289 0
1.355727 0.047537 0
1.344106 0.074605 0
1.324416 0.095130 0
1.299213 0.109407 0
1.270470 0.117972 0
1.239698 0.121342 0
1.208088 0.119913 0
1.176643 0.113969 0
1.146256 0.103752 0
1.117736 0.089569 0
1.091730 0.071901 0
1.068506 0.051474 0
1.047700 0.029207 0
1.028306 0.005955 0
1.009313 -0.017737 0
0.991023 -0.041403 0
0.976122 -0.064601 0
0.968335 -0.086839 0
0.970873 -0.106636 0
0.985050 -0.121025 0
1.010119 -0.126267 0
1.043857 -0.119181 0
1.083086 -0.098321 0
1.123865 -0.064815 0
1.161430 -0.023018 0
1.190235 0.019416 0
1.207203 0.056290 0
1.213221 0.085410 0
1.209862 0.105985 0
1.198918 0.117884 0
1.182186 0.121507 0
1.161332 0.117711 0
1.137817 0.107746 0
1.112880 0.093173 0
1.087507 0.075748 0
1.062365 0.057264 0
1.037724 0.039303 0
1.013564 0.022915 0
0.990024 0.008287 0
0.967929 -0.005415 0
0.948906 -0.019542 0
0.935210 -0.035044 0
0.928873 -0.051853 0
0.930792 -0.068656 0
0.940612 -0.083203 0
0.957169 -0.093035 0
0.978957 -0.096081 0
1.004416 -0.091002 0
1.032027 -0.077389 0
1.060283 -0.055928 0
1.087537 -0.028548 0
1.111607 0.001128 0
1.130220 0.028884 0
1.142761 0.051888 0
1.149335 0.068550 0
1.150286 0.077983 0
1.146134 0.080171 0
1.137576 0.075992 0
1.125535 0.067069 0
1.111183 0.055486 0
1.095905 0.043458 0
1.081213 0.033182 0
1.070136 0.028196 0
1.000000 0.000011 0
1.001076 -0.023793 0
1.004614 -0.049823 0
1.011652 -0.080215 0
1.024372 -0.117009 0
1.046827 -0.161613 0
1.086022 -0.212645 0
1.151569 -0.267278 0
1.265998 -0.282965 0
1.337371 -0.244331 0
1.369544 -0.193799 0
1.383809 -0.150368 0
1.390829 -0.116103 0
1.396211 -0.088668 0
1.403406 -0.064049 0
1.413454 -0.037540 0
1.423238 -0.006532 0
1.426017 0.027417 0
1.419009 0.060799 0
1.402595 0.090505 0
1.378326 0.114230 0
1.348049 0.130546 0
1.313781 0.138643 0
1.277696 0.138216 0
1.242032 0.129500 0
1.208815 0.113312 0
1.179411 0.090885 0
1.154248 0.063458 0
1.132994 0.031869 0
1.114732 -0.004018 0
1.098613 -0.043311 0
1.088403 -0.081273 0
1.088985 -0.111309 0
1.104186 -0.127303 0
1.134817 -0.123875 0
1.177235 -0.098132 0
1.223296 -0.052955 0
1.261642 0.000297 0
1.282647 0.048670 0
1.287599 0.087000 0
1.280761 0.115462 0
1.265342 0.135089 0
1.243771 0.147066 0
1.217908 0.152381 0
1.189234 0.151734 0
1.158989 0.145582 0
1.128261 0.134277 0
1.097977 0.118280 0
1.068650 0.098449 0
1.039870 0.076217 0
1.010007 0.053351 0
0.977144 0.031111 0
0.941263 0.009085 0
0.905745 -0.015273 0
0.876726 -0.044213 0
0.860419 -0.077151 0
0.859100 -0.110345 0
0.871607 -0.137999 0
0.895511 -0.154467 0
0.928255 -0.155712 0
0.967326 -0.139917 0
1.010046 -0.107790 0
1.053300 -0.062746 0
1.092993 -0.011532 0
1.123655 0.036883 0
1.143405 0.076796 0
1.152950 0.106743 0
1.153499 0.126376 0
1.146463 0.136087 0
1.133272 0.136841 0
1.115246 0.130062 0
1.093492 0.117546 0
1.068784 0.101387 0
1.041512 0.083783 0
1.011883 0.066601 0
0.980482 0.050720 0
0.948931 0.035588 0
0.920000 0.019494 0
0.896794 0.000430 0
0.881668 -0.022576 0
0.875667 -0.048335 0
0.878363 -0.073917 0
0.888422 -0.095999 0
0.904312 -0.111760 0
0.924657 -0.119172 0
0.948281 -0.117056 0
0.974136 -0.105126 0
1.001206 -0.084091 0
1.028417 -0.055732 0
1.054486 -0.022973 0
1.077371 0.009841 0
1.095238 0.038645 0
1.107584 0.061166 0
1.114268 0.076254 0
1.115434 0.083645 0
1.111499 0.083961 0
1.103155 0.078558 0
1.091383 0.069265 0
1.077476 0.058062 0
1.063071 0.046179 0
1.051714 0.039770 0
1.000000 0.000013 0
0.999899 -0.025084 0
0.999782 -0.053049 0
1.000376 -0.087024 0
1.003504 -0.130841 0
1.013387 -0.189169 0
1.039586 -0.265225 0
1.101597 -0.369787 0
1.263471 -0.386073 0
1.308668 -0.288639 0
1.293333 -0.203751 0
1.271979 -0.148996 0
1.252456 -0.112894 0
1.237475 -0.088585 0
1.230724 -0.069966 0
1.236000 -0.048581 0
1.252739 -0.016012 0
1.269279 0.026555 0
1.273704 0.070450 0
1.266915 0.109554 0
1.250920 0.140860 0
1.227178 0.162819 0
1.197196 0.174455 0
1.162935 0.175292 0
1.126810 0.165605 0
1.091115 0.146738 0
1.056535 0.120982 0
1.020894 0.090670 0
0.980945 0.057481 0
0.936668 0.022355 0
0.892589 -0.017261 0
0.857058 -0.062441 0
0.841813 -0.107481 0
0.850949 -0.143263 0
0.882448 -0.159485 0
0.931853 -0.148236 0
0.993040 -0.107756 0
1.057287 -0.045059 0
1.111899 0.021579 0
1.147295 0.076491 0
1.165995 0.117387 0
1.171651 0.146396 0
1.166907 0.165405 0
1.153880 0.175878 0
1.134354 0.178831 0
1.109835 0.174940 0
1.081448 0.164762 0
1.049629 0.149178 0
1.013727 0.130007 0
0.972231 0.110116 0
0.924482 0.091931 0
0.873167 0.074701 0
0.825021 0.053665 0
0.787968 0.023138 0
0.766699 -0.019269 0
0.761275 -0.069206 0
0.768517 -0.117818 0
0.785078 -0.157430 0
0.808853 -0.182911 0
0.838757 -0.190994 0
0.873947 -0.180112 0
0.913228 -0.150792 0
0.954826 -0.105970 0
0.996333 -0.050942 0
1.033871 0.005877 0
1.062796 0.056113 0
1.082216 0.095890 0
1.092443 0.124371 0
1.094233 0.141734 0
1.088512 0.148928 0
1.076168 0.147526 0
1.057877 0.139633 0
1.034036 0.127725 0
1.004979 0.114163 0
0.971577 0.100331 0
0.935954 0.085865 0
0.901640 0.068766 0
0.872735 0.046720 0
0.852455 0.018791 0
0.841890 -0.013915 0
0.840107 -0.048548 0
0.845298 -0.081410 0
0.855746 -0.109151 0
0.870202 -0.129269 0
0.887854 -0.140049 0
0.908130 -0.140480 0
0.930509 -0.130314 0
0.954386 -0.110209 0
0.979017 -0.081828 0
1.003487 -0.047826 0
1.026586 -0.011868 0
1.046323 0.021674 0
1.061442 0.049518 0
1.071409 0.070131 0
1.076021 0.082939 0
1.075381 0.088270 0
1.069898 0.087182 0
1.060331 0.081163 0
1.047896 0.071769 0
1.034369 0.058942 0
1.023476 0.051394 0
1.000000 0.000014 0
0.998480 -0.023579 0
0.993845 -0.050299 0
0.985946 -0.083932 0
0.974902 -0.130010 0
0.962154 -0.197681 0
0.953907 -0.300843 0
0.971952 -0.491158 0
1.128088 -0.490040 0
1.110970 -0.274204 0
1.003153 -0.157112 0
0.941018 -0.109479 0
0.895161 -0.081591 0
0.858218 -0.066934 0
0.833756 -0.062573 0
0.831721 -0.059557 0
0.857879 -0.039814 0
0.903899 0.006449 0
0.943474 0.063159 0
0.966555 0.113285 0
0.977077 0.153964 0
0.974927 0.184267 0
0.959999 0.202884 0
0.932695 0.208601 0
0.893476 0.201319 0
0.842687 0.183590 0
0.781532 0.161114 0
0.714031 0.139058 0
0.647910 0.116108 0
0.593393 0.084352 0
0.560299 0.036310 0
0.551271 -0.030490 0
0.562648 -0.105198 0
0.590295 -0.167942 0
0.631474 -0.204787 0
0.684937 -0.208727 0
0.749501 -0.178385 0
0.822405 -0.118562 0
0.897465 -0.041338 0
0.961640 0.032905 0
1.007032 0.091104 0
1.036184 0.134175 0
1.051410 0.164836 0
1.054551 0.184933 0
1.047204 0.195776 0
1.030588 0.198486 0
1.005219 0.194481 0
0.970642 0.186001 0
0.925953 0.175845 0
0.871860 0.165461 0
0.813349 0.152415 0
0.759857 0.130574 0
0.721153 0.094288 0
0.702095 0.043054 0
0.700833 -0.017513 0
0.710433 -0.078962 0
0.725082 -0.134142 0
0.742273 -0.178331 0
0.761823 -0.208143 0
0.784667 -0.220806 0
0.811804 -0.214391 0
0.843489 -0.188674 0
0.878903 -0.145855 0
0.916328 -0.090578 0
0.953400 -0.029581 0
0.985924 0.028450 0
1.010831 0.077095 0
1.027418 0.114358 0
1.035633 0.140017 0
1.035725 0.154906 0
1.027993 0.160696 0
1.012683 0.159676 0
0.990149 0.154282 0
0.961365 0.146240 0
0.928550 0.135624 0
0.895325 0.120656 0
0.865921 0.098806 0
0.843753 0.068680 0
0.830354 0.031276 0
0.825350 -0.010227 0
0.826995 -0.051742 0
0.833254 -0.089555 0
0.842634 -0.120903 0
0.854304 -0.143867 0
0.867950 -0.157099 0
0.883537 -0.159711 0
0.901052 -0.151381 0
0.920302 -0.132598 0
0.940826 -0.104833 0
0.961907 -0.070543 0
0.982605 -0.032995 0
1.001576 0.003788 0
1.017102 0.036079 0
1.028300 0.061674 0
1.034669 0.079672 0
1.036037 0.090082 0
1.032588 0.093606 0
1.024943 0.091265 0
1.014297 0.084022 0
1.002499 0.070597 0
0.992882 0.062117 0
1.000000 0.000015 0
0.997116 -0.018930 0
0.988057 -0.040511 0
0.971460 -0.068073 0
0.944652 -0.107037 0
0.902819 -0.168160 0
0.837145 -0.275013 0
0.732160 -0.543965 0
0.546469 -0.525093 0
0.000046 -0.163707 0
0.392294 -0.033794 0
0.317974 -0.040996 0
0.298596 -0.030093 0
0.299150 -0.027180 0
0.299633 -0.043470 0
0.311909 -0.072707 0
0.349349 -0.088194 0
0.416664 -0.059043 0
0.497935 0.007790 0
0.563829 0.075947 0
0.608815 0.132485 0
0.632872 0.179896 0
0.634910 0.216686 0
0.614384 0.241814 0
0.571700 0.255614 0
0.510016 0.258689 0
0.438080 0.249648 0
0.371127 0.224303 0
0.325952 0.178132 0
0.312555 0.109978 0
0.329931 0.024870 0
0.366153 -0.064786 0
0.405597 -0.146506 0
0.443067 -0.212096 0
0.480941 -0.254133 0
0.524072 -0.266262 0
0.576598 -0.245222 0
0.639865 -0.193023 0
0.711622 -0.117656 0
0.785256 -0.033077 0
0.847764 0.042842 0
0.893490 0.102016 0
0.923869 0.147036 0
0.939939 0.180083 0
0.942528 0.202793 0
0.932107 0.216922 0
0.908724 0.224706 0
0.872624 0.228443 0
0.825967 0.228787 0
0.774758 0.222721 0
0.728500 0.203936 0
0.696308 0.166899 0
0.682274 0.111431 0
0.684267 0.043464 0
0.696430 -0.027601 0
0.712117 -0.093448 0
0.727319 -0.149652 0
0.740644 -0.194168 0
0.752669 -0.225305 0
0.765315 -0.240977 0
0.781000 -0.238938 0
0.801557 -0.217893 0
0.827391 -0.178810 0
0.857370 -0.125441 0
0.889373 -0.063721 0
0.920540 -0.001320 0
0.946799 0.054395 0
0.966262 0.099569 0
0.978081 0.133426 0
0.981853 0.156566 0
0.977407 0.170565 0
0.964869 0.177475 0
0.945021 0.179042 0
0.919795 0.175761 0
0.892448 0.166369 0
0.866974 0.148492 0
0.846841 0.120338 0
0.833873 0.082288 0
0.828036 0.037196 0
0.828083 -0.010554 0
0.832231 -0.056451 0
0.838777 -0.097048 0
0.846540 -0.130200 0
0.854949 -0.154584 0
0.863989 -0.169281 0
0.874037 -0.173581 0
0.885599 -0.167078 0
0.898995 -0.149982 0
0.914158 -0.123433 0
0.930598 -0.089606 0
0.947496 -0.051538 0
0.963797 -0.012824 0
0.977982 0.022792 0
0.988840 0.052563 0
0.995650 0.075201 0
0.998053 0.090348 0
0.996098 0.098274 0
0.990333 0.099452 0
0.981911 0.094211 0
0.972565 0.080356 0
0.964864 0.071144 0
1.000000 0.000014 0
0.996200 -0.011634 0
0.984161 -0.024638 0
0.961688 -0.040517 0
0.924164 -0.061355 0
0.862355 -0.090162 0
0.756629 -0.130175 0
0.563838 -0.200478 0
0.074253 0.000445 0
-0.527745 0.124244 0
0.000000 -0.000011 0
-0.034054 -0.026655 0
-0.053076 -0.062768 0
-0.051773 -0.067971 0
-0.059887 -0.075335 0
-0.060816 -0.109276 0
-0.037954 -0.144573 0
0.013854 -0.142141 0
0.098291 -0.084009 0
0.194370 0.002403 0
0.263465 0.084919 0
0.304129 0.158171 0
0.320713 0.221371 0
0.313819 0.271811 0
0.287866 0.305691 0
0.252940 0.317219 0
0.223617 0.300012 0
0.213677 0.251198 0
0.229775 0.174693 0
0.268876 0.080383 0
0.318325 -0.017282 0
0.363027 -0.106155 0
0.397839 -0.182116 0
0.422676 -0.243291 0
0.441300 -0.285793 0
0.460397 -0.304382 0
0.487433 -0.294178 0
0.527643 -0.253588 0
0.581647 -0.186730 0
0.645327 -0.103239 0
0.709974 -0.017131 0
0.763285 0.058068 0
0.801654 0.118385 0
0.825077 0.166272 0
0.833646 0.203606 0
0.827544 0.232288 0
0.807607 0.253963 0
0.776546 0.268757 0
0.740200 0.273711 0
0.707184 0.262929 0
0.685845 0.230867 0
0.680332 0.176804 0
0.689232 0.106335 0
0.707569 0.028905 0
0.728919 -0.045357 0
0.748227 -0.109845 0
0.762989 -0.162664 0
0.772309 -0.203678 0
0.776791 -0.232814 0
0.778572 -0.249139 0
0.780971 -0.250636 0
0.787464 -0.235067 0
0.800287 -0.201669 0
0.819566 -0.152562 0
0.843537 -0.092752 0