# vtk DataFile Version 2.0
generated by CFD-lab course output (written by Tobias Neckel) 
ASCII

DATASET STRUCTURED_GRID
DIMENSIONS  101 21 1 
POINTS 2121 float

0.000000 0.000000 0
0.100000 0.000000 0
0.200000 0.000000 0
0.300000 0.000000 0
0.400000 0.000000 0
0.500000 0.000000 0
0.600000 0.000000 0
0.700000 0.000000 0
0.800000 0.000000 0
0.900000 0.000000 0
1.000000 0.000000 0
1.100000 0.000000 0
1.200000 0.000000 0
1.300000 0.000000 0
1.400000 0.000000 0
1.500000 0.000000 0
1.600000 0.000000 0
1.700000 0.000000 0
1.800000 0.000000 0
1.900000 0.000000 0
2.000000 0.000000 0
2.100000 0.000000 0
2.200000 0.000000 0
2.300000 0.000000 0
2.400000 0.000000 0
2.500000 0.000000 0
2.600000 0.000000 0
2.700000 0.000000 0
2.800000 0.000000 0
2.900000 0.000000 0
3.000000 0.000000 0
3.100000 0.000000 0
3.200000 0.000000 0
3.300000 0.000000 0
3.400000 0.000000 0
3.500000 0.000000 0
3.600000 0.000000 0
3.700000 0.000000 0
3.800000 0.000000 0
3.900000 0.000000 0
4.000000 0.000000 0
4.100000 0.000000 0
4.200000 0.000000 0
4.300000 0.000000 0
4.400000 0.000000 0
4.500000 0.000000 0
4.600000 0.000000 0
4.700000 0.000000 0
4.800000 0.000000 0
4.900000 0.000000 0
5.000000 0.000000 0
5.100000 0.000000 0
5.200000 0.000000 0
5.300000 0.000000 0
5.400000 0.000000 0
5.500000 0.000000 0
5.600000 0.000000 0
5.700000 0.000000 0
5.800000 0.000000 0
5.900000 0.000000 0
6.000000 0.000000 0
6.100000 0.000000 0
6.200000 0.000000 0
6.300000 0.000000 0
6.400000 0.000000 0
6.500000 0.000000 0
6.600000 0.000000 0
6.700000 0.000000 0
6.800000 0.000000 0
6.900000 0.000000 0
7.000000 0.000000 0
7.100000 0.000000 0
7.200000 0.000000 0
7.300000 0.000000 0
7.400000 0.000000 0
7.500000 0.000000 0
7.600000 0.000000 0
7.700000 0.000000 0
7.800000 0.000000 0
7.900000 0.000000 0
8.000000 0.000000 0
8.100000 0.000000 0
8.200000 0.000000 0
8.300000 0.000000 0
8.400000 0.000000 0
8.500000 0.000000 0
8.600000 0.000000 0
8.700000 0.000000 0
8.800000 0.000000 0
8.900000 0.000000 0
9.000000 0.000000 0
9.100000 0.000000 0
9.200000 0.000000 0
9.300000 0.000000 0
9.400000 0.000000 0
9.500000 0.000000 0
9.600000 0.000000 0
9.700000 0.000000 0
9.800000 0.000000 0
9.900000 0.000000 0
10.000000 0.000000 0
0.000000 0.100000 0
0.100000 0.100000 0
0.200000 0.100000 0
0.300000 0.100000 0
0.400000 0.100000 0
0.500000 0.100000 0
0.600000 0.100000 0
0.700000 0.100000 0
0.800000 0.100000 0
0.900000 0.100000 0
1.000000 0.100000 0
1.100000 0.100000 0
1.200000 0.100000 0
1.300000 0.100000 0
1.400000 0.100000 0
1.500000 0.100000 0
1.600000 0.100000 0
1.700000 0.100000 0
1.800000 0.100000 0
1.900000 0.100000 0
2.000000 0.100000 0
2.100000 0.100000 0
2.200000 0.100000 0
2.300000 0.100000 0
2.400000 0.100000 0
2.500000 0.100000 0
2.600000 0.100000 0
2.700000 0.100000 0
2.800000 0.100000 0
2.900000 0.100000 0
3.000000 0.100000 0
3.100000 0.100000 0
3.200000 0.100000 0
3.300000 0.100000 0
3.400000 0.100000 0
3.500000 0.100000 0
3.600000 0.100000 0
3.700000 0.100000 0
3.800000 0.100000 0
3.900000 0.100000 0
4.000000 0.100000 0
4.100000 0.100000 0
4.200000 0.100000 0
4.300000 0.100000 0
4.400000 0.100000 0
4.500000 0.100000 0
4.600000 0.100000 0
4.700000 0.100000 0
4.800000 0.100000 0
4.900000 0.100000 0
5.000000 0.100000 0
5.100000 0.100000 0
5.200000 0.100000 0
5.300000 0.100000 0
5.400000 0.100000 0
5.500000 0.100000 0
5.600000 0.100000 0
5.700000 0.100000 0
5.800000 0.100000 0
5.900000 0.100000 0
6.000000 0.100000 0
6.100000 0.100000 0
6.200000 0.100000 0
6.300000 0.100000 0
6.400000 0.100000 0
6.500000 0.100000 0
6.600000 0.100000 0
6.700000 0.100000 0
6.800000 0.100000 0
6.900000 0.100000 0
7.000000 0.100000 0
7.100000 0.100000 0
7.200000 0.100000 0
7.300000 0.100000 0
7.400000 0.100000 0
7.500000 0.100000 0
7.600000 0.100000 0
7.700000 0.100000 0
7.800000 0.100000 0
7.900000 0.100000 0
8.000000 0.100000 0
8.100000 0.100000 0
8.200000 0.100000 0
8.300000 0.100000 0
8.400000 0.100000 0
8.500000 0.100000 0
8.600000 0.100000 0
8.700000 0.100000 0
8.800000 0.100000 0
8.900000 0.100000 0
9.000000 0.100000 0
9.100000 0.100000 0
9.200000 0.100000 0
9.300000 0.100000 0
9.400000 0.100000 0
9.500000 0.100000 0
9.600000 0.100000 0
9.700000 0.100000 0
9.800000 0.100000 0
9.900000 0.100000 0
10.000000 0.100000 0
0.000000 0.200000 0
0.100000 0.200000 0
0.200000 0.200000 0
0.300000 0.200000 0
0.400000 0.200000 0
0.500000 0.200000 0
0.600000 0.200000 0
0.700000 0.200000 0
0.800000 0.200000 0
0.900000 0.200000 0
1.000000 0.200000 0
1.100000 0.200000 0
1.200000 0.200000 0
1.300000 0.200000 0
1.400000 0.200000 0
1.500000 0.200000 0
1.600000 0.200000 0
1.700000 0.200000 0
1.800000 0.200000 0
1.900000 0.200000 0
2.000000 0.200000 0
2.100000 0.200000 0
2.200000 0.200000 0
2.300000 0.200000 0
2.400000 0.200000 0
2.500000 0.200000 0
2.600000 0.200000 0
2.700000 0.200000 0
2.800000 0.200000 0
2.900000 0.200000 0
3.000000 0.200000 0
3.100000 0.200000 0
3.200000 0.200000 0
3.300000 0.200000 0
3.400000 0.200000 0
3.500000 0.200000 0
3.600000 0.200000 0
3.700000 0.200000 0
3.800000 0.200000 0
3.900000 0.200000 0
4.000000 0.200000 0
4.100000 0.200000 0
4.200000 0.200000 0
4.300000 0.200000 0
4.400000 0.200000 0
4.500000 0.200000 0
4.600000 0.200000 0
4.700000 0.200000 0
4.800000 0.200000 0
4.900000 0.200000 0
5.000000 0.200000 0
5.100000 0.200000 0
5.200000 0.200000 0
5.300000 0.200000 0
5.400000 0.200000 0
5.500000 0.200000 0
5.600000 0.200000 0
5.700000 0.200000 0
5.800000 0.200000 0
5.900000 0.200000 0
6.000000 0.200000 0
6.100000 0.200000 0
6.200000 0.200000 0
6.300000 0.200000 0
6.400000 0.200000 0
6.500000 0.200000 0
6.600000 0.200000 0
6.700000 0.200000 0
6.800000 0.200000 0
6.900000 0.200000 0
7.000000 0.200000 0
7.100000 0.200000 0
7.200000 0.200000 0
7.300000 0.200000 0
7.400000 0.200000 0
7.500000 0.200000 0
7.600000 0.200000 0
7.700000 0.200000 0
7.800000 0.200000 0
7.900000 0.200000 0
8.000000 0.200000 0
8.100000 0.200000 0
8.200000 0.200000 0
8.300000 0.200000 0
8.400000 0.200000 0
8.500000 0.200000 0
8.600000 0.200000 0
8.700000 0.200000 0
8.800000 0.200000 0
8.900000 0.200000 0
9.000000 0.200000 0
9.100000 0.200000 0
9.200000 0.200000 0
9.300000 0.200000 0
9.400000 0.200000 0
9.500000 0.200000 0
9.600000 0.200000 0
9.700000 0.200000 0
9.800000 0.200000 0
9.900000 0.200000 0
10.000000 0.200000 0
0.000000 0.300000 0
0.100000 0.300000 0
0.200000 0.300000 0
0.300000 0.300000 0
0.400000 0.300000 0
0.500000 0.300000 0
0.600000 0.300000 0
0.700000 0.300000 0
0.800000 0.300000 0
0.900000 0.300000 0
1.000000 0.300000 0
1.100000 0.300000 0
1.200000 0.300000 0
1.300000 0.300000 0
1.400000 0.300000 0
1.500000 0.300000 0
1.600000 0.300000 0
1.700000 0.300000 0
1.800000 0.300000 0
1.900000 0.300000 0
2.000000 0.300000 0
2.100000 0.300000 0
2.200000 0.300000 0
2.300000 0.300000 0
2.400000 0.300000 0
2.500000 0.300000 0
2.600000 0.300000 0
2.700000 0.300000 0
2.800000 0.300000 0
2.900000 0.300000 0
3.000000 0.300000 0
3.100000 0.300000 0
3.200000 0.300000 0
3.300000 0.300000 0
3.400000 0.300000 0
3.500000 0.300000 0
3.600000 0.300000 0
3.700000 0.300000 0
3.800000 0.300000 0
3.900000 0.300000 0
4.000000 0.300000 0
4.100000 0.300000 0
4.200000 0.300000 0
4.300000 0.300000 0
4.400000 0.300000 0
4.500000 0.300000 0
4.600000 0.300000 0
4.700000 0.300000 0
4.800000 0.300000 0
4.900000 0.300000 0
5.000000 0.300000 0
5.100000 0.300000 0
5.200000 0.300000 0
5.300000 0.300000 0
5.400000 0.300000 0
5.500000 0.300000 0
5.600000 0.300000 0
5.700000 0.300000 0
5.800000 0.300000 0
5.900000 0.300000 0
6.000000 0.300000 0
6.100000 0.300000 0
6.200000 0.300000 0
6.300000 0.300000 0
6.400000 0.300000 0
6.500000 0.300000 0
6.600000 0.300000 0
6.700000 0.300000 0
6.800000 0.300000 0
6.900000 0.300000 0
7.000000 0.300000 0
7.100000 0.300000 0
7.200000 0.300000 0
7.300000 0.300000 0
7.400000 0.300000 0
7.500000 0.300000 0
7.600000 0.300000 0
7.700000 0.300000 0
7.800000 0.300000 0
7.900000 0.300000 0
8.000000 0.300000 0
8.100000 0.300000 0
8.200000 0.300000 0
8.300000 0.300000 0
8.400000 0.300000 0
8.500000 0.300000 0
8.600000 0.300000 0
8.700000 0.300000 0
8.800000 0.300000 0
8.900000 0.300000 0
9.000000 0.300000 0
9.100000 0.300000 0
9.200000 0.300000 0
9.300000 0.300000 0
9.400000 0.300000 0
9.500000 0.300000 0
9.600000 0.300000 0
9.700000 0.300000 0
9.800000 0.300000 0
9.900000 0.300000 0
10.000000 0.300000 0
0.000000 0.400000 0
0.100000 0.400000 0
0.200000 0.400000 0
0.300000 0.400000 0
0.400000 0.400000 0
0.500000 0.400000 0
0.600000 0.400000 0
0.700000 0.400000 0
0.800000 0.400000 0
0.900000 0.400000 0
1.000000 0.400000 0
1.100000 0.400000 0
1.200000 0.400000 0
1.300000 0.400000 0
1.400000 0.400000 0
1.500000 0.400000 0
1.600000 0.400000 0
1.700000 0.400000 0
1.800000 0.400000 0
1.900000 0.400000 0
2.000000 0.400000 0
2.100000 0.400000 0
2.200000 0.400000 0
2.300000 0.400000 0
2.400000 0.400000 0
2.500000 0.400000 0
2.600000 0.400000 0
2.700000 0.400000 0
2.800000 0.400000 0
2.900000 0.400000 0
3.000000 0.400000 0
3.100000 0.400000 0
3.200000 0.400000 0
3.300000 0.400000 0
3.400000 0.400000 0
3.500000 0.400000 0
3.600000 0.400000 0
3.700000 0.400000 0
3.800000 0.400000 0
3.900000 0.400000 0
4.000000 0.400000 0
4.100000 0.400000 0
4.200000 0.400000 0
4.300000 0.400000 0
4.400000 0.400000 0
4.500000 0.400000 0
4.600000 0.400000 0
4.700000 0.400000 0
4.800000 0.400000 0
4.900000 0.400000 0
5.000000 0.400000 0
5.100000 0.400000 0
5.200000 0.400000 0
5.300000 0.400000 0
5.400000 0.400000 0
5.500000 0.400000 0
5.600000 0.400000 0
5.700000 0.400000 0
5.800000 0.400000 0
5.900000 0.400000 0
6.000000 0.400000 0
6.100000 0.400000 0
6.200000 0.400000 0
6.300000 0.400000 0
6.400000 0.400000 0
6.500000 0.400000 0
6.600000 0.400000 0
6.700000 0.400000 0
6.800000 0.400000 0
6.900000 0.400000 0
7.000000 0.400000 0
7.100000 0.400000 0
7.200000 0.400000 0
7.300000 0.400000 0
7.400000 0.400000 0
7.500000 0.400000 0
7.600000 0.400000 0
7.700000 0.400000 0
7.800000 0.400000 0
7.900000 0.400000 0
8.000000 0.400000 0
8.100000 0.400000 0
8.200000 0.400000 0
8.300000 0.400000 0
8.400000 0.400000 0
8.500000 0.400000 0
8.600000 0.400000 0
[...]
POINT_DATA 2121 

VECTORS velocity float
0.500000 0.000000 0
-0.000000 0.000000 0
0.000004 0.000000 0
0.000013 0.000000 0
0.000028 0.000000 0
0.000050 0.000000 0
0.000081 0.000000 0
0.000116 0.000000 0
0.000161 0.000000 0
0.000208 0.000000 0
0.000252 0.000000 0
0.000283 0.000000 0
0.000292 0.000000 0
0.000265 0.000000 0
0.000187 0.000000 0
0.000048 0.000000 0
-0.000158 0.000000 0
-0.000431 0.000000 0
-0.000762 0.000000 0
-0.001127 0.000000 0
-0.001486 0.000000 0
-0.001782 0.000000 0
-0.001933 0.000000 0
-0.001868 0.000000 0
-0.001558 0.000000 0
-0.001023 0.000000 0
-0.000328 0.000000 0
0.000438 0.000000 0
0.001188 0.000000 0
0.001863 0.000000 0
0.002416 0.000000 0
0.002822 0.000000 0
0.003065 0.000000 0
0.003134 0.000000 0
0.003025 0.000000 0
0.002734 0.000000 0
0.002260 0.000000 0
0.001601 0.000000 0
0.000750 0.000000 0
-0.000305 0.000000 0
-0.001532 0.000000 0
-0.002810 0.000000 0
-0.004024 0.000000 0
-0.005026 0.000000 0
-0.005653 0.000000 0
-0.005750 0.000000 0
-0.005227 0.000000 0
-0.004107 0.000000 0
-0.002561 0.000000 0
-0.000870 0.000000 0
0.000744 0.000000 0
0.002198 0.000000 0
0.003412 0.000000 0
0.004336 0.000000 0
0.004949 0.000000 0
0.005257 0.000000 0
0.005277 0.000000 0
0.005034 0.000000 0
0.004545 0.000000 0
0.003825 0.000000 0
0.002881 0.000000 0
0.001734 0.000000 0
0.000436 0.000000 0
-0.000868 0.000000 0
-0.002035 0.000000 0
-0.003051 0.000000 0
-0.003929 0.000000 0
-0.004673 0.000000 0
-0.005268 0.000000 0
-0.005670 0.000000 0
-0.005797 0.000000 0
-0.005545 0.000000 0
-0.004820 0.000000 0
-0.003605 0.000000 0
-0.002019 0.000000 0
-0.000301 0.000000 0
0.001401 0.000000 0
0.003000 0.000000 0
0.004386 0.000000 0
0.005456 0.000000 0
0.006117 0.000000 0
0.006293 0.000000 0
0.005945 0.000000 0
0.005085 0.000000 0
0.003799 0.000000 0
0.002245 0.000000 0
0.000630 0.000000 0
-0.000803 0.000000 0
-0.001865 0.000000 0
-0.002627 0.000000 0
-0.003190 0.000000 0
-0.003638 0.000000 0
-0.004034 0.000000 0
-0.004410 0.000000 0
-0.004776 0.000000 0
-0.005109 0.000000 0
-0.005368 0.000000 0
-0.005500 0.000000 0
-0.005472 0.000000 0
-0.005298 0.000000 0
-0.005222 0.000000 0
1.000000 -0.000001 0
1.002692 -0.004879 0
1.011029 -0.010524 0
1.025369 -0.016619 0
1.046098 -0.022944 0
1.073415 -0.029095 0
1.107031 -0.034370 0
1.145748 -0.037828 0
1.187139 -0.038518 0
1.227483 -0.036084 0
1.263370 -0.031093 0
1.292679 -0.024581 0
1.314565 -0.017554 0
1.329103 -0.010800 0
1.337004 -0.004880 0
1.339411 -0.000178 0
1.337740 0.003083 0
1.333563 0.004825 0
1.328477 0.005105 0
1.323954 0.004128 0
1.321201 0.002271 0
1.320946 0.000090 0
1.323230 -0.001689 0
1.327218 -0.002330 0
1.331279 -0.001372 0
1.333421 0.001250 0
1.331887 0.005220 0
1.325533 0.009978 0
1.313929 0.014928 0
1.297233 0.019558 0
1.276054 0.023492 0
1.251289 0.026490 0
1.224010 0.028399 0
1.195383 0.029133 0
1.166631 0.028643 0
1.139002 0.026905 0
1.113755 0.023904 0
1.092143 0.019617 0
1.075394 0.013984 0
1.064682 0.006939 0
1.061070 -0.001293 0
1.065423 -0.010060 0
1.078208 -0.018526 0
1.099158 -0.025761 0
1.126988 -0.030732 0
1.159317 -0.032491 0
1.192821 -0.030454 0
1.223605 -0.024681 0
1.247848 -0.016051 0
1.262653 -0.006089 0
1.266754 0.003845 0
1.260538 0.012988 0
1.245211 0.020847 0
1.222417 0.027073 0
1.194030 0.031487 0
1.161992 0.034055 0
1.128195 0.034829 0
1.094427 0.033899 0
1.062350 0.031342 0
1.033489 0.027209 0
1.009201 0.021546 0
0.990583 0.014472 0
0.978354 0.006353 0
0.972795 -0.001949 0
0.973834 -0.009539 0
0.981073 -0.016082 0
0.993974 -0.021581 0
1.011935 -0.026070 0
1.034317 -0.029506 0
1.060405 -0.031699 0
1.089266 -0.032268 0
1.119536 -0.030696 0
1.149261 -0.026510 0
1.175909 -0.019608 0
1.196624 -0.010579 0
1.208752 -0.000561 0
1.210632 0.009480 0
1.202260 0.018952 0
1.184535 0.027293 0
1.158948 0.033915 0
1.127512 0.038269 0
1.092658 0.039894 0
1.057079 0.038491 0
1.023492 0.034049 0
0.994303 0.026975 0
0.971232 0.018126 0
0.955059 0.008730 0
0.945636 0.000257 0
0.942223 -0.006222 0
0.943728 -0.010670 0
0.948949 -0.013623 0
0.956930 -0.015584 0
0.967030 -0.016929 0
0.978881 -0.017877 0
0.992279 -0.018480 0
1.007029 -0.018625 0
1.022777 -0.018078 0
1.038888 -0.016584 0
1.054439 -0.013983 0
1.068343 -0.011489 0
1.079637 -0.010511 0
1.000000 -0.000002 0
1.003022 -0.011032 0
1.011835 -0.022663 0
1.026761 -0.035052 0
1.048409 -0.048036 0
1.077421 -0.060931 0
1.114074 -0.072327 0
1.157547 -0.080107 0
1.205350 -0.081746 0
1.251553 -0.076247 0
1.291405 -0.065217 0
1.322799 -0.051220 0
1.345396 -0.036450 0
1.359727 -0.022467 0
1.366817 -0.010337 0
1.368047 -0.000767 0
1.365025 0.005817 0
1.359487 0.009236 0
1.353225 0.009584 0
1.347941 0.007263 0
1.345088 0.003011 0
1.345704 -0.002018 0
1.350066 -0.006254 0
1.357250 -0.008029 0
1.365075 -0.006187 0
1.370749 -0.000599 0
1.371987 0.007883 0
1.367561 0.017952 0
1.357152 0.028299 0
1.341121 0.037872 0
1.320282 0.045939 0
1.295678 0.052036 0
1.268456 0.055895 0
1.239812 0.057366 0
1.210959 0.056366 0
1.183110 0.052859 0
1.157469 0.046841 0
1.135199 0.038342 0
1.117383 0.027440 0
1.104973 0.014303 0
1.098813 -0.000761 0
1.099830 -0.017159 0
1.108842 -0.033755 0
1.126071 -0.048796 0
1.150861 -0.060169 0
1.181685 -0.065838 0
1.216155 -0.064288 0
1.250939 -0.055023 0
1.281874 -0.039041 0
1.304631 -0.018900 0
1.316035 0.002120 0
1.315642 0.021544 0
1.304964 0.038118 0
1.285941 0.051175 0
1.260691 0.060416 0
1.231307 0.065825 0
1.199751 0.067553 0
1.167795 0.065834 0
1.136988 0.060926 0
1.108621 0.053136 0
1.083673 0.042894 0
1.062749 0.030835 0
1.046083 0.017775 0
1.033690 0.004507 0
1.025762 -0.008291 0
1.022476 -0.020153 0
1.023841 -0.030875 0
1.029823 -0.040355 0
1.040469 -0.048482 0
1.055925 -0.054959 0
1.076238 -0.059139 0
1.101013 -0.060000 0
1.129138 -0.056376 0
1.158665 -0.047364 0
1.186830 -0.032844 0
1.210216 -0.014008 0
1.225452 0.006491 0
1.230668 0.026096 0
1.226292 0.043309 0
1.213563 0.057018 0
1.194200 0.066285 0
1.170217 0.070428 0
1.143704 0.069161 0
1.116602 0.062773 0
1.090491 0.052260 0
1.066477 0.039247 0
1.045206 0.025601 0
1.027030 0.012842 0
1.012316 0.001915 0
1.001265 -0.006719 0
0.993644 -0.013194 0
0.989042 -0.018073 0
0.987182 -0.021942 0
0.988042 -0.025238 0
0.991770 -0.028136 0
0.998518 -0.030486 0
1.008221 -0.031847 0
1.020431 -0.031649 0
1.034273 -0.029441 0
1.048558 -0.025185 0
1.060198 -0.022655 0
1.000000 -0.000003 0
1.002631 -0.016705 0
1.010636 -0.034252 0
1.024631 -0.053192 0
1.045740 -0.073612 0
1.075476 -0.094761 0
1.115342 -0.114497 0
1.165675 -0.129116 0
1.225015 -0.132538 0
1.280512 -0.122152 0
1.324910 -0.102351 0
1.357240 -0.078583 0
1.378677 -0.054493 0
1.390607 -0.032230 0
1.394470 -0.013210 0
1.391957 0.001603 0
1.384848 0.011635 0
1.375140 0.016621 0
1.364970 0.016654 0
1.356404 0.012280 0
1.351260 0.004526 0
1.351101 -0.004875 0
1.356873 -0.013224 0
1.367759 -0.017334 0
1.380725 -0.014877 0
1.391379 -0.005680 0
1.396047 0.008392 0
1.393300 0.024812 0
1.383152 0.041368 0
1.366453 0.056422 0
1.344420 0.068931 0
1.318355 0.078310 0
1.289527 0.084257 0
1.259155 0.086623 0
1.228422 0.085338 0
1.198484 0.080386 0
1.170471 0.071806 0
1.145465 0.059695 0
1.124458 0.044202 0
1.108311 0.025502 0
1.097724 0.003843 0
1.093294 -0.020095 0
1.095630 -0.044771 0
1.105076 -0.067779 0
1.121662 -0.086342 0
1.145311 -0.097780 0
1.175564 -0.099702 0
1.210779 -0.090394 0
1.247512 -0.069740 0
1.280602 -0.040250 0
1.304317 -0.007169 0
1.314763 0.024052 0
1.312678 0.050539 0
1.300382 0.071337 0
1.280341 0.086114 0
1.254905 0.094988 0
1.226190 0.098335 0
1.196009 0.096657 0
1.165847 0.090511 0
1.136853 0.080520 0
1.109862 0.067414 0
1.085443 0.052057 0
1.063953 0.035407 0
1.045535 0.018367 0
1.030060 0.001671 0
1.017324 -0.014167 0
1.007322 -0.028933 0
1.000652 -0.042702 0
0.998438 -0.055611 0
1.002072 -0.067469 0
1.012652 -0.077356 0
1.030397 -0.083595 0
1.054480 -0.084160 0
1.083199 -0.077299 0
1.114211 -0.062130 0
1.144683 -0.039184 0
1.171290 -0.010974 0
1.190444 0.018109 0
1.200456 0.044394 0
1.201809 0.066001 0
1.195574 0.081610 0
1.183127 0.090387 0
1.165923 0.092105 0
1.145335 0.087263 0
1.122589 0.077101 0
1.098802 0.063412 0
1.075035 0.048180 0
1.052226 0.033149 0
1.030991 0.019544 0
1.011656 0.008002 0
0.994441 -0.001399 0
0.979540 -0.009121 0
0.967368 -0.015928 0
0.958640 -0.022463 0
0.954102 -0.028953 0
0.954189 -0.035072 0
0.958806 -0.039986 0
0.967274 -0.042633 0
0.978410 -0.042107 0
0.990673 -0.037410 0
1.001380 -0.034221 0
1.000000 -0.000003 0
1.002104 -0.021659 0
1.008649 -0.044661 0
1.020548 -0.070162 0
1.039558 -0.098884 0
1.068453 -0.130533 0
1.111001 -0.162536 0
1.170506 -0.189793 0
1.251232 -0.196592 0
1.318880 -0.176152 0
1.364923 -0.141954 0
1.394136 -0.104995 0
1.411208 -0.069828 0
1.418439 -0.038270 0
1.417278 -0.011698 0
1.409185 0.008848 0
1.395891 0.022630 0
1.379719 0.029114 0
1.363295 0.028333 0
1.349168 0.020988 0
1.339520 0.008326 0
1.336210 -0.007620 0
1.341420 -0.022909 0
1.355428 -0.031887 0
1.374963 -0.029822 0
1.393663 -0.015938 0
1.404695 0.005960 0
1.405189 0.030849 0
1.395995 0.055142 0
1.378869 0.076600 0
1.355696 0.094032 0
1.328122 0.106924 0
1.297537 0.115089 0
1.265165 0.118464 0
1.232152 0.117029 0
1.199616 0.110802 0
1.168664 0.099852 0
1.140364 0.084348 0
1.115659 0.064587 0
1.095122 0.041031 0
1.078574 0.014249 0
1.065064 -0.015069 0
1.054123 -0.045536 0
1.047043 -0.074825 0
1.046016 -0.100400 0
1.053918 -0.119735 0
1.072979 -0.129750 0
1.103309 -0.126967 0
1.142425 -0.108864 0
1.185430 -0.075707 0
1.225475 -0.032048 0
1.254972 0.013174 0
1.269567 0.052490 0
1.271111 0.083505 0
1.262203 0.105888 0
1.245406 0.119970 0
1.223060 0.126444 0
1.197189 0.126171 0
1.169464 0.120077 0
1.141208 0.109117 0
1.113421 0.094300 0
1.086786 0.076739 0
1.061609 0.057679 0
1.037726 0.038394 0
1.014566 0.019915 0
0.991653 0.002581 0
0.969390 -0.014208 0
0.949631 -0.031474 0
0.935545 -0.049903 0
0.929982 -0.069175 0
0.934216 -0.087464 0
0.947828 -0.101827 0
0.969336 -0.109176 0
0.996788 -0.107094 0
1.028085 -0.094329 0
1.061043 -0.071090 0
1.093287 -0.039273 0
1.121858 -0.003075 0
1.143277 0.031938 0
1.156441 0.061895 0
1.161644 0.084963 0
1.159613 0.100077 0
1.151276 0.106952 0
1.137636 0.106108 0
1.119723 0.098794 0
1.098601 0.086802 0
1.075316 0.072177 0
1.050788 0.056885 0
1.025720 0.042484 0
1.000688 0.029830 0
0.976425 0.018922 0
0.954051 0.009001 0
0.934973 -0.001040 0
0.920556 -0.011969 0
0.911800 -0.023683 0
0.908990 -0.035187 0
0.911590 -0.044929 0
0.918461 -0.051249 0
0.928106 -0.052838 0
0.938830 -0.048153 0
0.948318 -0.044648 0
1.000000 -0.000004 0
1.001271 -0.025348 0
1.005336 -0.052700 0
1.013225 -0.084106 0
1.027129 -0.121518 0
1.051126 -0.166210 0
1.092304 -0.216560 0
1.160389 -0.269356 0
1.278251 -0.280922 0
1.351826 -0.235852 0
1.385421 -0.177614 0
1.400885 -0.124876 0
1.407966 -0.078806 0
1.408163 -0.038310 0
1.400909 -0.003965 0
1.385913 0.022984 0
1.364626 0.041100 0
1.339675 0.049228 0
1.314280 0.047218 0
1.291629 0.036066 0
1.274211 0.017494 0
1.263490 -0.006772 0
1.261831 -0.032447 0
1.272726 -0.050891 0
1.295463 -0.053130 0
1.324434 -0.035415 0
1.349283 -0.003130 0
1.360188 0.033510 0
1.357708 0.067684 0
1.345374 0.096716 0
1.325958 0.119673 0
1.301367 0.136462 0
1.272950 0.147207 0
1.241814 0.152001 0
1.209008 0.150880 0
1.175592 0.143867 0
1.142634 0.131051 0
1.111146 0.112693 0
1.081899 0.089438 0
1.054943 0.062580 0
1.028850 0.033896 0
1.000845 0.004356 0
0.969287 -0.026748 0
0.937681 -0.059669 0
0.914902 -0.093211 0
0.907849 -0.124738 0
0.918439 -0.149089 0
0.945133 -0.159838 0
0.984725 -0.151864 0
1.033007 -0.123307 0
1.084680 -0.076721 0
1.132916 -0.020049 0
1.169390 0.034394 0
1.190870 0.078697 0
1.199337 0.111813 0
1.197091 0.134125 0
1.186391 0.146548 0
1.169325 0.150249 0
1.147728 0.146487 0
1.123123 0.136558 0
1.096648 0.121831 0
1.068902 0.103864 0
1.039784 0.084463 0
1.008659 0.065405 0
0.975168 0.047738 0
0.940450 0.031004 0
0.907635 0.013086 0
0.880872 -0.008858 0
0.863714 -0.035963 0
0.857906 -0.066140 0
0.862802 -0.095202 0
0.876558 -0.118714 0
0.897209 -0.133120 0
0.923049 -0.136049 0
0.952578 -0.126387 0
0.984348 -0.104390 0
1.016827 -0.071793 0
1.048238 -0.031887 0
1.075828 0.009805 0
1.096711 0.047630 0
1.110213 0.078436 0
1.116357 0.100754 0
1.115534 0.114082 0
1.108344 0.118816 0
1.095506 0.116135 0
1.077787 0.107819 0
1.055943 0.095991 0
1.030706 0.082742 0
1.002927 0.069641 0
0.973845 0.057296 0
0.945276 0.045237 0
0.919461 0.032332 0
0.898517 0.017569 0
0.883800 0.000713 0
0.875643 -0.017386 0
0.873545 -0.034861 0
0.876416 -0.049455 0
0.882901 -0.059147 0
0.891563 -0.062474 0
0.900916 -0.057620 0
0.909042 -0.053762 0
1.000000 -0.000004 0
1.000076 -0.026994 0
1.000452 -0.056621 0
1.001863 -0.091958 0
1.006167 -0.136789 0
1.017681 -0.195715 0
1.046195 -0.271807 0
1.111647 -0.375749 0
1.279369 -0.388037 0
1.328491 -0.283328 0
1.317246 -0.191019 0
1.302426 -0.127550 0
1.293953 -0.077115 0
1.288150 -0.031220 0
1.276240 0.010546 0
1.255134 0.045128 0
1.225605 0.068875 0
1.190399 0.079473 0
1.153287 0.076390 0
1.118033 0.061066 0
1.087248 0.036470 0
1.062128 0.004755 0
1.043659 -0.032157 0
1.039113 -0.065534 0
1.056451 -0.081538 0
1.094413 -0.069756 0
1.142735 -0.029795 0
1.184712 0.022420 0
1.207835 0.069952 0
1.216161 0.108343 0
1.214307 0.138032 0
1.204510 0.159926 0
1.188066 0.174634 0
1.166019 0.182399 0
1.139439 0.183245 0
1.109418 0.177168 0
1.076823 0.164292 0
1.041693 0.145077 0
1.002574 0.120783 0
0.957036 0.094074 0
0.904521 0.068346 0
0.849427 0.044495 0
0.800055 0.017629 0
0.764215 -0.020435 0
0.746770 -0.070563 0
0.747634 -0.123268 0
0.763927 -0.167033 0
0.792813 -0.193255 0
0.832167 -0.196743 0
0.879939 -0.175670 0
0.933443 -0.131966 0
0.988859 -0.071542 0
1.040211 -0.005469 0
1.079498 0.053552 0
1.105168 0.099663 0
1.118609 0.132912 0
1.121476 0.154205 0
1.115494 0.164830 0
1.102283 0.166275 0
1.083178 0.160192 0
1.059001 0.148516 0
1.029875 0.133598 0
0.995445 0.117916 0
0.955854 0.103006 0
0.913165 0.088119 0
0.871954 0.070110 0
0.838030 0.045368 0
0.815764 0.012446 0
0.806053 -0.026937 0
0.806979 -0.068263 0
0.815759 -0.106116 0
0.830194 -0.136234 0
0.848966 -0.155668 0
0.871356 -0.162465 0
0.896821 -0.155630 0
0.924685 -0.135342 0
0.954005 -0.103169 0
0.983573 -0.062083 0
1.011836 -0.016540 0
1.035995 0.027507 0
1.054136 0.065315 0
1.065605 0.094754 0
1.070235 0.114964 0
1.068155 0.126135 0
1.059656 0.129349 0
1.045127 0.126362 0
1.025065 0.119255 0
1.000246 0.109898 0
0.972000 0.099342 0
0.942403 0.087479 0
0.914112 0.073306 0
0.889782 0.055761 0
0.871341 0.034622 0
0.859550 0.010906 0
0.853984 -0.013426 0
0.853499 -0.035959 0
0.856796 -0.054284 0
0.862661 -0.066394 0
0.869988 -0.070850 0
0.877694 -0.065630 0
0.884295 -0.061377 0
1.000000 -0.000004 0
0.998619 -0.025803 0
0.994381 -0.054494 0
0.987153 -0.089825 0
0.977096 -0.137341 0
0.965771 -0.206244 0
0.959662 -0.310533 0
0.981207 -0.502537 0
1.143823 -0.497772 0
1.130696 -0.273736 0
1.027524 -0.151557 0
0.972195 -0.101591 0
0.948823 -0.064538 0
0.947623 -0.020604 0
0.939853 0.029048 0
0.918626 0.073624 0
0.883253 0.105847 0
0.834421 0.121556 0
0.774397 0.119593 0
0.708770 0.102111 0
0.648456 0.073397 0
0.606990 0.036808 0
0.593325 -0.009446 0
0.607552 -0.063693 0
0.646481 -0.108429 0
0.706525 -0.121699 0
0.782709 -0.093433 0
0.865545 -0.031594 0
0.937205 0.036228 0
0.985984 0.090238 0
1.016661 0.131317 0
1.033642 0.162697 0
1.038672 0.185691 0
1.032968 0.200621 0
1.017552 0.207474 0
0.993008 0.206476 0
0.959010 0.198770 0
0.914138 0.186936 0
0.857083 0.174090 0
0.789743 0.160631 0
0.720254 0.141505 0
0.661880 0.108823 0
0.626406 0.058468 0
0.616802 -0.006379 0
0.625294 -0.076626 0
0.642969 -0.141893 0
0.665623 -0.194268 0
0.692895 -0.228082 0
0.726083 -0.238997 0
0.766278 -0.224592 0
0.813187 -0.185647 0
0.864852 -0.126822 0
0.917909 -0.056250 0
0.966132 0.013734 0
1.003182 0.072698 0
1.028457 0.117813 0
1.042558 0.149659 0
1.046420 0.169438 0
1.041014 0.178798 0
1.027053 0.179835 0
1.004821 0.175128 0
0.974385 0.167415 0
0.936512 0.158478 0
0.893973 0.147681 0
0.852003 0.131635 0
0.816835 0.106136 0
0.793035 0.069274 0
0.781770 0.023118 0
0.781145 -0.027177 0
0.787490 -0.075846 0
0.797827 -0.118417 0
0.810569 -0.151920 0
0.825247 -0.174283 0
0.842051 -0.183907 0
0.861339 -0.179720 0
0.883205 -0.161579 0
0.907245 -0.130687 0
0.932585 -0.089724 0
0.958013 -0.042623 0
0.981780 0.005326 0
1.001334 0.048824 0
1.015409 0.084653 0
1.023314 0.111531 0
1.024719 0.129393 0
1.019525 0.139158 0
1.007862 0.142405 0
0.990225 0.140867 0
0.967712 0.135803 0
0.942208 0.127483 0
0.916269 0.115185 0
0.892603 0.097859 0
0.873375 0.075103 0
0.859713 0.047801 0
0.851668 0.018070 0
0.848519 -0.011333 0
0.849105 -0.037671 0
0.852260 -0.058615 0
0.857029 -0.072337 0
0.862650 -0.077505 0
0.868454 -0.071925 0
0.873400 -0.067328 0
1.000000 -0.000004 0
0.997195 -0.021380 0
0.988378 -0.045161 0
0.972197 -0.074678 0
0.946003 -0.115412 0
0.905046 -0.178287 0
0.840660 -0.287250 0
0.737649 -0.559918 0
0.553714 -0.537532 0
-0.000191 -0.167035 0
0.403137 -0.032527 0
0.333809 -0.048858 0
0.343671 -0.052549 0
0.381044 -0.022254 0
0.414092 0.039545 0
0.412674 0.101736 0
0.386164 0.153090 0
0.338114 0.188338 0
0.274931 0.202047 0
0.209248 0.187009 0
0.160324 0.138245 0
0.146946 0.059875 0
0.174253 -0.032732 0
0.225857 -0.118694 0
0.289321 -0.180510 0
0.361508 -0.205988 0
0.444026 -0.188820 0
0.537781 -0.132082 0
0.636749 -0.050493 0
0.722794 0.028881 0
0.785404 0.090368 0
0.828063 0.137907 0
0.853592 0.175301 0
0.863080 0.203512 0
0.856970 0.223198 0
0.835101 0.235703 0
0.797173 0.243156 0
0.744439 0.246998 0
0.682489 0.245175 0
0.622534 0.230903 0
0.577807 0.196210 0
0.556571 0.138345 0
0.558268 0.062712 0
0.575530 -0.019318 0
0.597823 -0.096727 0
0.618870 -0.163596 0
0.637225 -0.216961 0
0.654559 -0.253721 0
0.674280 -0.270135 0
0.699973 -0.262782 0
0.733706 -0.230544 0
0.775039 -0.176269 0
0.821333 -0.106754 0
0.868590 -0.031725 0
0.910014 0.037333 0
0.941578 0.093532 0
0.962626 0.136237 0
0.973130 0.166369 0
0.973247 0.185637 0
0.963112 0.196379 0
0.942982 0.201178 0
0.913921 0.201902 0
0.878811 0.198323 0
0.842724 0.187510 0
0.811725 0.165253 0
0.790446 0.129076 0
0.780297 0.080433 0
0.779678 0.024335 0
0.785537 -0.032658 0
0.794600 -0.084945 0
0.804593 -0.129195 0
0.814409 -0.163655 0
0.823968 -0.187152 0
0.833988 -0.198561 0
0.845577 -0.196789 0
0.859688 -0.181255 0
0.876656 -0.152555 0
0.896036 -0.112855 0
0.916782 -0.065740 0
0.937490 -0.015818 0
0.955978 0.031685 0
0.970415 0.072771 0
0.979698 0.105650 0
0.983141 0.129920 0
0.980402 0.146200 0
0.971553 0.155655 0
0.957259 0.159400 0
0.938947 0.157912 0
0.918761 0.150784 0
0.899169 0.137083 0
0.882344 0.116200 0
0.869637 0.088651 0
0.861427 0.056330 0
0.857340 0.022101 0
0.856587 -0.010862 0
0.858185 -0.039698 0
0.861189 -0.062207 0
0.864877 -0.076782 0
0.868775 -0.082273 0
0.872604 -0.076378 0
0.875825 -0.071507 0
1.000000 -0.000004 0
0.996209 -0.014188 0
0.984223 -0.029500 0
0.961841 -0.047454 0
0.924452 -0.070196 0
0.862784 -0.100908 0
0.757028 -0.143144 0
0.563696 -0.215599 0
0.072636 -0.000329 0
-0.534579 0.133039 0
0.000000 0.000048 0
-0.031285 -0.053114 0
-0.056045 -0.111778 0
-0.039515 -0.091026 0
-0.019758 -0.002576 0
-0.006632 0.101561 0
-0.011543 0.180415 0
-0.031988 0.232797 0
-0.057545 0.248464 0
-0.073289 0.216715 0
-0.061219 0.135691 0
-0.015337 0.022866 0
0.039936 -0.088364 0
0.092515 -0.178762 0
0.141787 -0.244083 0
0.191975 -0.276409 0
0.249589 -0.269711 0
0.319676 -0.224324 0
0.402760 -0.148791 0
0.492049 -0.058424 0
0.570061 0.026040 0
0.627283 0.094502 0
0.664970 0.150667 0
0.683839 0.197236 0
0.684048 0.235447 0
0.666302 0.266268 0
0.633478 0.289427 0
0.592442 0.301616 0
0.554222 0.295993 0
0.530565 0.265313 0
0.528225 0.207470 0
0.545892 0.128366 0
0.576348 0.039513 0
0.609107 -0.045930 0
0.636635 -0.119965 0
0.656246 -0.181295 0
0.667681 -0.229962 0
0.672867 -0.265146 0
0.675865 -0.284419 0
0.682085 -0.284023 0
0.696424 -0.260718 0
0.721124 -0.214454 0
0.754906 -0.149806 0
0.793965 -0.074952 0
0.833031 -0.000295 0
0.865670 0.065196 0
0.889370 0.118102 0
0.903151 0.158812 0
0.906572 0.188810 0
0.899643 0.210095 0
0.883253 0.224314 0
0.859859 0.231580 0
0.833827 0.229671 0