# vtk DataFile Version 2.0
generated by CFD-lab course output (written by Tobias Neckel) 
ASCII

DATASET STRUCTURED_GRID
DIMENSIONS  101 21 1 
POINTS 2121 float

0.000000 0.000000 0
0.100000 0.000000 0
0.200000 0.000000 0
0.300000 0.000000 0
0.400000 0.000000 0
0.500000 0.000000 0
0.600000 0.000000 0
0.700000 0.000000 0
0.800000 0.000000 0
0.900000 0.000000 0
1.000000 0.000000 0
1.100000 0.000000 0
1.200000 0.000000 0
1.300000 0.000000 0
1.400000 0.000000 0
1.500000 0.000000 0
1.600000 0.000000 0
1.700000 0.000000 0
1.800000 0.000000 0
1.900000 0.000000 0
2.000000 0.000000 0
2.100000 0.000000 0
2.200000 0.000000 0
2.300000 0.000000 0
2.400000 0.000000 0
2.500000 0.000000 0
2.600000 0.000000 0
2.700000 0.000000 0
2.800000 0.000000 0
2.900000 0.000000 0
3.000000 0.000000 0
3.100000 0.000000 0
3.200000 0.000000 0
3.300000 0.000000 0
3.400000 0.000000 0
3.500000 0.000000 0
3.600000 0.000000 0
3.700000 0.000000 0
3.800000 0.000000 0
3.900000 0.000000 0
4.000000 0.000000 0
4.100000 0.000000 0
4.200000 0.000000 0
4.300000 0.000000 0
4.400000 0.000000 0
4.500000 0.000000 0
4.600000 0.000000 0
4.700000 0.000000 0
4.800000 0.000000 0
4.900000 0.000000 0
5.000000 0.000000 0
5.100000 0.000000 0
5.200000 0.000000 0
5.300000 0.000000 0
5.400000 0.000000 0
5.500000 0.000000 0
5.600000 0.000000 0
5.700000 0.000000 0
5.800000 0.000000 0
5.900000 0.000000 0
6.000000 0.000000 0
6.100000 0.000000 0
6.200000 0.000000 0
6.300000 0.000000 0
6.400000 0.000000 0
6.500000 0.000000 0
6.600000 0.000000 0
6.700000 0.000000 0
6.800000 0.000000 0
6.900000 0.000000 0
7.000000 0.000000 0
7.100000 0.000000 0
7.200000 0.000000 0
7.300000 0.000000 0
7.400000 0.000000 0
7.500000 0.000000 0
7.600000 0.000000 0
7.700000 0.000000 0
7.800000 0.000000 0
7.900000 0.000000 0
8.000000 0.000000 0
8.100000 0.000000 0
8.200000 0.000000 0
8.300000 0.000000 0
8.400000 0.000000 0
8.500000 0.000000 0
8.600000 0.000000 0
8.700000 0.000000 0
8.800000 0.000000 0
8.900000 0.000000 0
9.000000 0.000000 0
9.100000 0.000000 0
9.200000 0.000000 0
9.300000 0.000000 0
9.400000 0.000000 0
9.500000 0.000000 0
9.600000 0.000000 0
9.700000 0.000000 0
9.800000 0.000000 0
9.900000 0.000000 0
10.000000 0.000000 0
0.000000 0.100000 0
0.100000 0.100000 0
0.200000 0.100000 0
0.300000 0.100000 0
0.400000 0.100000 0
0.500000 0.100000 0
0.600000 0.100000 0
0.700000 0.100000 0
0.800000 0.100000 0
0.900000 0.100000 0
1.000000 0.100000 0
1.100000 0.100000 0
1.200000 0.100000 0
1.300000 0.100000 0
1.400000 0.100000 0
1.500000 0.100000 0
1.600000 0.100000 0
1.700000 0.100000 0
1.800000 0.100000 0
1.900000 0.100000 0
2.000000 0.100000 0
2.100000 0.100000 0
2.200000 0.100000 0
2.300000 0.100000 0
2.400000 0.100000 0
2.500000 0.100000 0
2.600000 0.100000 0
2.700000 0.100000 0
2.800000 0.100000 0
2.900000 0.100000 0
3.000000 0.100000 0
3.100000 0.100000 0
3.200000 0.100000 0
3.300000 0.100000 0
3.400000 0.100000 0
3.500000 0.100000 0
3.600000 0.100000 0
3.700000 0.100000 0
3.800000 0.100000 0
3.900000 0.100000 0
4.000000 0.100000 0
4.100000 0.100000 0
4.200000 0.100000 0
4.300000 0.100000 0
4.400000 0.100000 0
4.500000 0.100000 0
4.600000 0.100000 0
4.700000 0.100000 0
4.800000 0.100000 0
4.900000 0.100000 0
5.000000 0.100000 0
5.100000 0.100000 0
5.200000 0.100000 0
5.300000 0.100000 0
5.400000 0.100000 0
5.500000 0.100000 0
5.600000 0.100000 0
5.700000 0.100000 0
5.800000 0.100000 0
5.900000 0.100000 0
6.000000 0.100000 0
6.100000 0.100000 0
6.200000 0.100000 0
6.300000 0.100000 0
6.400000 0.100000 0
6.500000 0.100000 0
6.600000 0.100000 0
6.700000 0.100000 0
6.800000 0.100000 0
6.900000 0.100000 0
7.000000 0.100000 0
7.100000 0.100000 0
7.200000 0.100000 0
7.300000 0.100000 0
7.400000 0.100000 0
7.500000 0.100000 0
7.600000 0.100000 0
7.700000 0.100000 0
7.800000 0.100000 0
7.900000 0.100000 0
8.000000 0.100000 0
8.100000 0.100000 0
8.200000 0.100000 0
8.300000 0.100000 0
8.400000 0.100000 0
8.500000 0.100000 0
8.600000 0.100000 0
8.700000 0.100000 0
8.800000 0.100000 0
8.900000 0.100000 0
9.000000 0.100000 0
9.100000 0.100000 0
9.200000 0.100000 0
9.300000 0.100000 0
9.400000 0.100000 0
9.500000 0.100000 0
9.600000 0.100000 0
9.700000 0.100000 0
9.800000 0.100000 0
9.900000 0.100000 0
10.000000 0.100000 0
0.000000 0.200000 0
0.100000 0.200000 0
0.200000 0.200000 0
0.300000 0.200000 0
0.400000 0.200000 0
0.500000 0.200000 0
0.600000 0.200000 0
0.700000 0.200000 0
0.800000 0.200000 0
0.900000 0.200000 0
1.000000 0.200000 0
1.100000 0.200000 0
1.200000 0.200000 0
1.300000 0.200000 0
1.400000 0.200000 0
1.500000 0.200000 0
1.600000 0.200000 0
1.700000 0.200000 0
1.800000 0.200000 0
1.900000 0.200000 0
2.000000 0.200000 0
2.100000 0.200000 0
2.200000 0.200000 0
2.300000 0.200000 0
2.400000 0.200000 0
2.500000 0.200000 0
2.600000 0.200000 0
2.700000 0.200000 0
2.800000 0.200000 0
2.900000 0.200000 0
3.000000 0.200000 0
3.100000 0.200000 0
3.200000 0.200000 0
3.300000 0.200000 0
3.400000 0.200000 0
3.500000 0.200000 0
3.600000 0.200000 0
3.700000 0.200000 0
3.800000 0.200000 0
3.900000 0.200000 0
4.000000 0.200000 0
4.100000 0.200000 0
4.200000 0.200000 0
4.300000 0.200000 0
4.400000 0.200000 0
4.500000 0.200000 0
4.600000 0.200000 0
4.700000 0.200000 0
4.800000 0.200000 0
4.900000 0.200000 0
5.000000 0.200000 0
5.100000 0.200000 0
5.200000 0.200000 0
5.300000 0.200000 0
5.400000 0.200000 0
5.500000 0.200000 0
5.600000 0.200000 0
5.700000 0.200000 0
5.800000 0.200000 0
5.900000 0.200000 0
6.000000 0.200000 0
6.100000 0.200000 0
6.200000 0.200000 0
6.300000 0.200000 0
6.400000 0.200000 0
6.500000 0.200000 0
6.600000 0.200000 0
6.700000 0.200000 0
6.800000 0.200000 0
6.900000 0.200000 0
7.000000 0.200000 0
7.100000 0.200000 0
7.200000 0.200000 0
7.300000 0.200000 0
7.400000 0.200000 0
7.500000 0.200000 0
7.600000 0.200000 0
7.700000 0.200000 0
7.800000 0.200000 0
7.900000 0.200000 0
8.000000 0.200000 0
8.100000 0.200000 0
8.200000 0.200000 0
8.300000 0.200000 0
8.400000 0.200000 0
8.500000 0.200000 0
8.600000 0.200000 0
8.700000 0.200000 0
8.800000 0.200000 0
8.900000 0.200000 0
9.000000 0.200000 0
9.100000 0.200000 0
9.200000 0.200000 0
9.300000 0.200000 0
9.400000 0.200000 0
9.500000 0.200000 0
9.600000 0.200000 0
9.700000 0.200000 0
9.800000 0.200000 0
9.900000 0.200000 0
10.000000 0.200000 0
0.000000 0.300000 0
0.100000 0.300000 0
0.200000 0.300000 0
0.300000 0.300000 0
0.400000 0.300000 0
0.500000 0.300000 0
0.600000 0.300000 0
0.700000 0.300000 0
0.800000 0.300000 0
0.900000 0.300000 0
1.000000 0.300000 0
1.100000 0.300000 0
1.200000 0.300000 0
1.300000 0.300000 0
1.400000 0.300000 0
1.500000 0.300000 0
1.600000 0.300000 0
1.700000 0.300000 0
1.800000 0.300000 0
1.900000 0.300000 0
2.000000 0.300000 0
2.100000 0.300000 0
2.200000 0.300000 0
2.300000 0.300000 0
2.400000 0.300000 0
2.500000 0.300000 0
2.600000 0.300000 0
2.700000 0.300000 0
2.800000 0.300000 0
2.900000 0.300000 0
3.000000 0.300000 0
3.100000 0.300000 0
3.200000 0.300000 0
3.300000 0.300000 0
3.400000 0.300000 0
3.500000 0.300000 0
3.600000 0.300000 0
3.700000 0.300000 0
3.800000 0.300000 0
3.900000 0.300000 0
4.000000 0.300000 0
4.100000 0.300000 0
4.200000 0.300000 0
4.300000 0.300000 0
4.400000 0.300000 0
4.500000 0.300000 0
4.600000 0.300000 0
4.700000 0.300000 0
4.800000 0.300000 0
4.900000 0.300000 0
5.000000 0.300000 0
5.100000 0.300000 0
5.200000 0.300000 0
5.300000 0.300000 0
5.400000 0.300000 0
5.500000 0.300000 0
5.600000 0.300000 0
5.700000 0.300000 0
5.800000 0.300000 0
5.900000 0.300000 0
6.000000 0.300000 0
6.100000 0.300000 0
6.200000 0.300000 0
6.300000 0.300000 0
6.400000 0.300000 0
6.500000 0.300000 0
6.600000 0.300000 0
6.700000 0.300000 0
6.800000 0.300000 0
6.900000 0.300000 0
7.000000 0.300000 0
7.100000 0.300000 0
7.200000 0.300000 0
7.300000 0.300000 0
7.400000 0.300000 0
7.500000 0.300000 0
7.600000 0.300000 0
7.700000 0.300000 0
7.800000 0.300000 0
7.900000 0.300000 0
8.000000 0.300000 0
8.100000 0.300000 0
8.200000 0.300000 0
8.300000 0.300000 0
8.400000 0.300000 0
8.500000 0.300000 0
8.600000 0.300000 0
8.700000 0.300000 0
8.800000 0.300000 0
8.900000 0.300000 0
9.000000 0.300000 0
9.100000 0.300000 0
9.200000 0.300000 0
9.300000 0.300000 0
9.400000 0.300000 0
9.500000 0.300000 0
9.600000 0.300000 0
9.700000 0.300000 0
9.800000 0.300000 0
9.900000 0.300000 0
10.000000 0.300000 0
0.000000 0.400000 0
0.100000 0.400000 0
0.200000 0.400000 0
0.300000 0.400000 0
0.400000 0.400000 0
0.500000 0.400000 0
0.600000 0.400000 0
0.700000 0.400000 0
0.800000 0.400000 0
0.900000 0.400000 0
1.000000 0.400000 0
1.100000 0.400000 0
1.200000 0.400000 0
1.300000 0.400000 0
1.400000 0.400000 0
1.500000 0.400000 0
1.600000 0.400000 0
1.700000 0.400000 0
1.800000 0.400000 0
1.900000 0.400000 0
2.000000 0.400000 0
2.100000 0.400000 0
2.200000 0.400000 0
2.300000 0.400000 0
2.400000 0.400000 0
2.500000 0.400000 0
2.600000 0.400000 0
2.700000 0.400000 0
2.800000 0.400000 0
2.900000 0.400000 0
3.000000 0.400000 0
3.100000 0.400000 0
3.200000 0.400000 0
3.300000 0.400000 0
3.400000 0.400000 0
3.500000 0.400000 0
3.600000 0.400000 0
3.700000 0.400000 0
3.800000 0.400000 0
3.900000 0.400000 0
4.000000 0.400000 0
4.100000 0.400000 0
4.200000 0.400000 0
4.300000 0.400000 0
4.400000 0.400000 0
4.500000 0.400000 0
4.600000 0.400000 0
4.700000 0.400000 0
4.800000 0.400000 0
4.900000 0.400000 0
5.000000 0.400000 0
5.100000 0.400000 0
5.200000 0.400000 0
5.300000 0.400000 0
5.400000 0.400000 0
5.500000 0.400000 0
5.600000 0.400000 0
5.700000 0.400000 0
5.800000 0.400000 0
5.900000 0.400000 0
6.000000 0.400000 0
6.100000 0.400000 0
6.200000 0.400000 0
6.300000 0.400000 0
6.400000 0.400000 0
6.500000 0.400000 0
6.600000 0.400000 0
6.700000 0.400000 0
6.800000 0.400000 0
6.900000 0.400000 0
7.000000 0.400000 0
7.100000 0.400000 0
7.200000 0.400000 0
7.300000 0.400000 0
7.400000 0.400000 0
7.500000 0.400000 0
7.600000 0.400000 0
7.700000 0.400000 0
7.800000 0.400000 0
7.900000 0.400000 0
8.000000 0.400000 0
8.100000 0.400000 0
8.200000 0.400000 0
8.300000 0.400000 0
8.400000 0.400000 0
8.500000 0.400000 0
8.600000 0.400000 0
[...]
POINT_DATA 2121 

VECTORS velocity float
0.500000 0.000000 0
0.000003 0.000000 0
0.000011 0.000000 0
0.000024 0.000000 0
0.000038 0.000000 0
0.000052 0.000000 0
0.000061 0.000000 0
0.000060 0.000000 0
0.000042 0.000000 0
0.000002 0.000000 0
-0.000065 0.000000 0
-0.000165 0.000000 0
-0.000296 0.000000 0
-0.000456 0.000000 0
-0.000633 0.000000 0
-0.000805 0.000000 0
-0.000938 0.000000 0
-0.000988 0.000000 0
-0.000909 0.000000 0
-0.000680 0.000000 0
-0.000305 0.000000 0
0.000181 0.000000 0
0.000720 0.000000 0
0.001256 0.000000 0
0.001734 0.000000 0
0.002114 0.000000 0
0.002366 0.000000 0
0.002467 0.000000 0
0.002406 0.000000 0
0.002173 0.000000 0
0.001768 0.000000 0
0.001192 0.000000 0
0.000449 0.000000 0
-0.000460 0.000000 0
-0.001528 0.000000 0
-0.002658 0.000000 0
-0.003728 0.000000 0
-0.004578 0.000000 0
-0.005034 0.000000 0
-0.004953 0.000000 0
-0.004287 0.000000 0
-0.003121 0.000000 0
-0.001667 0.000000 0
-0.000179 0.000000 0
0.001215 0.000000 0
0.002430 0.000000 0
0.003406 0.000000 0
0.004118 0.000000 0
0.004565 0.000000 0
0.004761 0.000000 0
0.004723 0.000000 0
0.004468 0.000000 0
0.004003 0.000000 0
0.003332 0.000000 0
0.002449 0.000000 0
0.001354 0.000000 0
0.000078 0.000000 0
-0.001242 0.000000 0
-0.002483 0.000000 0
-0.003611 0.000000 0
-0.004600 0.000000 0
-0.005411 0.000000 0
-0.005983 0.000000 0
-0.006229 0.000000 0
-0.006041 0.000000 0
-0.005324 0.000000 0
-0.004061 0.000000 0
-0.002380 0.000000 0
-0.000551 0.000000 0
0.001241 0.000000 0
0.002899 0.000000 0
0.004324 0.000000 0
0.005425 0.000000 0
0.006132 0.000000 0
0.006396 0.000000 0
0.006195 0.000000 0
0.005539 0.000000 0
0.004474 0.000000 0
0.003097 0.000000 0
0.001548 0.000000 0
0.000017 0.000000 0
-0.001227 0.000000 0
-0.002169 0.000000 0
-0.002876 0.000000 0
-0.003428 0.000000 0
-0.003884 0.000000 0
-0.004281 0.000000 0
-0.004625 0.000000 0
-0.004887 0.000000 0
-0.005001 0.000000 0
-0.004879 0.000000 0
-0.004437 0.000000 0
-0.003628 0.000000 0
-0.002486 0.000000 0
-0.001138 0.000000 0
0.000265 0.000000 0
0.001652 0.000000 0
0.002956 0.000000 0
0.004083 0.000000 0
0.004923 0.000000 0
0.005459 0.000000 0
1.000000 -0.000004 0
1.002606 -0.004657 0
1.010609 -0.010084 0
1.024380 -0.015965 0
1.044318 -0.022096 0
1.070669 -0.028111 0
1.103215 -0.033360 0
1.140875 -0.036951 0
1.181419 -0.037990 0
1.221386 -0.036175 0
1.257657 -0.032097 0
1.288408 -0.026792 0
1.313093 -0.021241 0
1.332069 -0.016153 0
1.346229 -0.011917 0
1.356684 -0.008627 0
1.364478 -0.006110 0
1.370328 -0.003982 0
1.374407 -0.001764 0
1.376281 0.000959 0
1.375116 0.004399 0
1.370025 0.008488 0
1.360389 0.012938 0
1.346015 0.017363 0
1.327161 0.021378 0
1.304460 0.024667 0
1.278822 0.026994 0
1.251341 0.028201 0
1.223226 0.028193 0
1.195747 0.026925 0
1.170193 0.024387 0
1.147834 0.020593 0
1.129904 0.015558 0
1.117583 0.009272 0
1.111962 0.001815 0
1.113952 -0.006331 0
1.124073 -0.014316 0
1.142059 -0.021108 0
1.166494 -0.025574 0
1.194704 -0.026751 0
1.223040 -0.024200 0
1.247538 -0.018273 0
1.264817 -0.010111 0
1.272881 -0.001151 0
1.271357 0.007565 0
1.260944 0.015417 0
1.242913 0.021978 0
1.218847 0.027010 0
1.190440 0.030437 0
1.159369 0.032283 0
1.127228 0.032616 0
1.095515 0.031505 0
1.065640 0.028990 0
1.038936 0.025069 0
1.016641 0.019714 0
0.999834 0.012931 0
0.989331 0.004965 0
0.985616 -0.003424 0
0.988863 -0.011408 0
0.998930 -0.018585 0
1.015415 -0.024751 0
1.037662 -0.029690 0
1.064768 -0.033109 0
1.095537 -0.034590 0
1.128337 -0.033608 0
1.160950 -0.029698 0
1.190571 -0.022765 0
1.214072 -0.013432 0
1.228587 -0.002987 0
1.232334 0.007422 0
1.225319 0.017137 0
1.208578 0.025622 0
1.183700 0.032365 0
1.152719 0.036936 0
1.117995 0.039013 0
1.082072 0.038402 0
1.047517 0.035071 0
1.016700 0.029214 0
0.991521 0.021316 0
0.973149 0.012184 0
0.961900 0.002995 0
0.957394 -0.004914 0
0.958836 -0.010955 0
0.965157 -0.015416 0
0.975415 -0.018744 0
0.988926 -0.021325 0
1.005265 -0.023420 0
1.024206 -0.025120 0
1.045571 -0.026320 0
1.069023 -0.026727 0
1.093882 -0.025922 0
1.119017 -0.023495 0
1.142854 -0.019236 0
1.163538 -0.013337 0
1.179211 -0.006454 0
1.188427 0.000569 0
1.190653 0.007043 0
1.186616 0.012289 0
1.178003 0.015374 0
1.167266 0.013029 0
1.159967 0.010349 0
1.000000 -0.000007 0
1.002925 -0.010596 0
1.011391 -0.021768 0
1.025719 -0.033703 0
1.046529 -0.046281 0
1.074491 -0.058887 0
1.109933 -0.070196 0
1.152150 -0.078193 0
1.198820 -0.080499 0
1.244332 -0.076227 0
1.284239 -0.067012 0
1.316717 -0.055424 0
1.341758 -0.043648 0
1.360287 -0.033124 0
1.373679 -0.024601 0
1.383472 -0.018236 0
1.391104 -0.013633 0
1.397600 -0.009918 0
1.403221 -0.005942 0
1.407258 -0.000699 0
1.408375 0.006264 0
1.405261 0.014734 0
1.397063 0.024016 0
1.383559 0.033233 0
1.365101 0.041558 0
1.342455 0.048342 0
1.316643 0.053122 0
1.288843 0.055599 0
1.260315 0.055597 0
1.232355 0.053037 0
1.206252 0.047919 0
1.183252 0.040295 0
1.164530 0.030258 0
1.151181 0.017951 0
1.144231 0.003640 0
1.144710 -0.012101 0
1.153559 -0.028098 0
1.171010 -0.042412 0
1.196111 -0.052636 0
1.226594 -0.056537 0
1.259000 -0.052825 0
1.289009 -0.041769 0
1.312199 -0.025335 0
1.325279 -0.006532 0
1.327307 0.011944 0
1.319374 0.028450 0
1.303155 0.042102 0
1.280540 0.052478 0
1.253413 0.059483 0
1.223532 0.063216 0
1.192491 0.063857 0
1.161713 0.061590 0
1.132464 0.056582 0
1.105840 0.049002 0
1.082731 0.039104 0
1.063752 0.027313 0
1.049220 0.014222 0
1.039304 0.000473 0
1.034383 -0.013310 0
1.034774 -0.026547 0
1.040588 -0.038726 0
1.051807 -0.049348 0
1.068381 -0.057870 0
1.090213 -0.063563 0
1.116877 -0.065408 0
1.147263 -0.062229 0
1.179330 -0.053117 0
1.210076 -0.038012 0
1.235736 -0.018259 0
1.252544 0.003272 0
1.258395 0.023759 0
1.253821 0.041621 0
1.240269 0.055861 0
1.219628 0.065706 0
1.194046 0.070647 0
1.165748 0.070475 0
1.136848 0.065367 0
1.109145 0.055990 0
1.083965 0.043543 0
1.062085 0.029611 0
1.043834 0.015742 0
1.029405 0.003049 0
1.019091 -0.007780 0
1.012833 -0.016599 0
1.010311 -0.023791 0
1.011282 -0.029873 0
1.015735 -0.035306 0
1.023902 -0.040334 0
1.036101 -0.044846 0
1.052470 -0.048343 0
1.072746 -0.050026 0
1.096170 -0.049004 0
1.121503 -0.044555 0
1.147084 -0.036391 0
1.170928 -0.024925 0
1.190947 -0.011477 0
1.205509 0.001775 0
1.214071 0.012614 0
1.217523 0.019314 0
1.217518 0.018000 0
1.215555 0.015626 0
1.000000 -0.000010 0
1.002524 -0.016042 0
1.010167 -0.032876 0
1.023535 -0.051099 0
1.043740 -0.070865 0
1.072296 -0.091510 0
1.110738 -0.111013 0
1.159486 -0.125833 0
1.217156 -0.130167 0
1.271412 -0.121591 0
1.315280 -0.104478 0
1.347958 -0.084305 0
1.370953 -0.064806 0
1.386268 -0.048069 0
1.396020 -0.035098 0
1.402402 -0.026048 0
1.407520 -0.020235 0
1.413057 -0.016095 0
1.419640 -0.011419 0
1.426139 -0.004192 0
1.430029 0.006397 0
1.429006 0.019801 0
1.421790 0.034642 0
1.408176 0.049325 0
1.388753 0.062483 0
1.364551 0.073126 0
1.336796 0.080607 0
1.306800 0.084531 0
1.275904 0.084684 0
1.245453 0.080991 0
1.216751 0.073494 0
1.191027 0.062320 0
1.169398 0.047634 0
1.152883 0.029576 0
1.142464 0.008290 0
1.139202 -0.015656 0
1.144190 -0.040612 0
1.157925 -0.063656 0
1.179956 -0.081154 0
1.209056 -0.089637 0
1.243080 -0.086612 0
1.278466 -0.071469 0
1.310105 -0.046379 0
1.332393 -0.016257 0
1.341624 0.013472 0
1.338433 0.039571 0
1.325232 0.060813 0
1.304526 0.076754 0
1.278622 0.087446 0
1.249511 0.093205 0
1.218850 0.094436 0
1.187993 0.091534 0
1.158040 0.084864 0
1.129872 0.074803 0
1.104176 0.061804 0
1.081458 0.046445 0
1.062047 0.029416 0
1.046055 0.011415 0
1.033357 -0.006875 0
1.023822 -0.024787 0
1.017698 -0.041780 0
1.015731 -0.057480 0
1.019138 -0.071513 0
1.029296 -0.083084 0
1.046993 -0.090657 0
1.071895 -0.092149 0
1.102463 -0.085577 0
1.136138 -0.069837 0
1.169545 -0.045454 0
1.198664 -0.015236 0
1.219285 0.015862 0
1.229388 0.043749 0
1.229748 0.066558 0
1.221777 0.083158 0
1.207180 0.092891 0
1.187737 0.095598 0
1.165133 0.091671 0
1.140839 0.082094 0
1.116094 0.068372 0
1.091950 0.052310 0
1.069298 0.035669 0
1.048753 0.019822 0
1.030572 0.005610 0
1.014879 -0.006644 0
1.001748 -0.017200 0
0.991571 -0.026757 0
0.985189 -0.036049 0
0.983623 -0.045496 0
0.987729 -0.054897 0
0.997835 -0.063381 0
1.013608 -0.069632 0
1.034163 -0.072261 0
1.058261 -0.070159 0
1.084475 -0.062771 0
1.111283 -0.050326 0
1.137097 -0.034021 0
1.160235 -0.016089 0
1.179047 0.000266 0
1.192609 0.011919 0
1.201105 0.014989 0
1.203985 0.015367 0
1.000000 -0.000014 0
1.001992 -0.020758 0
1.008169 -0.042777 0
1.019415 -0.067272 0
1.037456 -0.095038 0
1.065041 -0.125881 0
1.105924 -0.157382 0
1.163420 -0.184607 0
1.241637 -0.192422 0
1.307360 -0.174348 0
1.352072 -0.143552 0
1.380291 -0.111091 0
1.396858 -0.081953 0
1.405071 -0.058186 0
1.407600 -0.040732 0
1.407180 -0.029731 0
1.406674 -0.024284 0
1.408948 -0.022035 0
1.415895 -0.019022 0
1.426333 -0.011087 0
1.435659 0.003399 0
1.438827 0.022975 0
1.433874 0.044847 0
1.420791 0.066271 0
1.400674 0.085185 0
1.374979 0.100300 0
1.345182 0.110874 0
1.312725 0.116493 0
1.279037 0.116947 0
1.245536 0.112194 0
1.213592 0.102349 0
1.184453 0.087652 0
1.159180 0.068406 0
1.138587 0.044889 0
1.123077 0.017325 0
1.112524 -0.013824 0
1.107194 -0.046816 0
1.108217 -0.078175 0
1.116721 -0.103764 0
1.134242 -0.119658 0
1.161706 -0.122231 0
1.197862 -0.108790 0
1.238390 -0.079260 0
1.276096 -0.038049 0
1.302705 0.005906 0
1.313480 0.044844 0
1.310766 0.076010 0
1.297742 0.099089 0
1.277287 0.114498 0
1.251831 0.122989 0
1.223351 0.125376 0
1.193424 0.122402 0
1.163286 0.114704 0
1.133908 0.102867 0
1.106030 0.087520 0
1.080126 0.069444 0
1.056268 0.049628 0
1.033988 0.029166 0
1.012401 0.008926 0
0.990898 -0.010885 0
0.970169 -0.030632 0
0.952995 -0.050785 0
0.943091 -0.071432 0
0.943203 -0.091416 0
0.954114 -0.108005 0
0.974876 -0.117697 0
1.003529 -0.117359 0
1.037623 -0.105093 0
1.074407 -0.080783 0
1.110772 -0.046468 0
1.142941 -0.006964 0
1.166627 0.031159 0
1.180506 0.063471 0
1.185263 0.088274 0
1.182042 0.104685 0
1.172184 0.112519 0
1.157055 0.112263 0
1.137959 0.105026 0
1.116114 0.092429 0
1.092629 0.076402 0
1.068424 0.058934 0
1.044130 0.041769 0
1.020111 0.026088 0
0.996785 0.012219 0
0.975048 -0.000490 0
0.956313 -0.013321 0
0.942374 -0.027365 0
0.934945 -0.042880 0
0.934922 -0.059065 0
0.942176 -0.074228 0
0.955830 -0.086360 0
0.974649 -0.093665 0
0.997309 -0.094873 0
1.022530 -0.089419 0
1.049104 -0.077553 0
1.075848 -0.060435 0
1.101516 -0.040181 0
1.124697 -0.019766 0
1.143696 -0.002750 0
1.157202 0.006618 0
1.163381 0.010987 0
1.000000 -0.000018 0
1.001163 -0.024205 0
1.004869 -0.050297 0
1.012109 -0.080383 0
1.025023 -0.116487 0
1.047641 -0.159975 0
1.086964 -0.209389 0
1.152635 -0.261542 0
1.266960 -0.274103 0
1.338303 -0.232022 0
1.370027 -0.177404 0
1.382766 -0.129086 0
1.385642 -0.089582 0
1.381708 -0.058807 0
1.372817 -0.037203 0
1.361380 -0.025118 0
1.350291 -0.021999 0
1.343765 -0.025314 0
1.346992 -0.028802 0
1.360789 -0.023954 0
1.379517 -0.006096 0
1.392453 0.021586 0
1.394089 0.052679 0
1.385277 0.082526 0
1.368132 0.108296 0
1.344592 0.128620 0
1.316192 0.142863 0
1.284285 0.150678 0
1.250228 0.151876 0
1.215439 0.146440 0
1.181318 0.134582 0
1.149068 0.116736 0
1.119507 0.093504 0
1.092956 0.065683 0
1.068985 0.034356 0
1.045822 0.000231 0
1.021122 -0.036301 0
0.997037 -0.073179 0
0.980971 -0.107176 0
0.979739 -0.134619 0
0.996304 -0.150230 0
1.029585 -0.148151 0
1.075512 -0.124610 0
1.127573 -0.080569 0
1.176873 -0.023910 0
1.213179 0.031511 0
1.232371 0.076552 0
1.237495 0.110234 0
1.231614 0.133359 0
1.217392 0.147143 0
1.197107 0.152844 0
1.172674 0.151600 0
1.145675 0.144382 0
1.117377 0.132061 0
1.088661 0.115587 0
1.059788 0.096209 0
1.030121 0.075557 0
0.998368 0.055284 0
0.963804 0.036217 0
0.927896 0.017448 0
0.894623 -0.003875 0
0.869050 -0.030401 0
0.855358 -0.061720 0
0.854659 -0.094106 0
0.865520 -0.122327 0
0.885695 -0.141563 0
0.913047 -0.148322 0
0.945667 -0.140713 0
0.981696 -0.118602 0
1.019136 -0.083769 0
1.055631 -0.039992 0
1.087725 0.006185 0
1.111697 0.047921 0
1.126887 0.081622 0
1.133672 0.105970 0
1.132831 0.120583 0
1.125329 0.125893 0
1.112181 0.123032 0
1.094359 0.113699 0
1.072701 0.099996 0
1.047855 0.084164 0
1.020399 0.068132 0
0.991199 0.052951 0
0.961839 0.038415 0
0.934716 0.023268 0
0.912479 0.005913 0
0.897195 -0.014686 0
0.889885 -0.038049 0
0.890428 -0.062133 0
0.897852 -0.084294 0
0.910875 -0.102109 0
0.928256 -0.113744 0
0.948908 -0.118045 0
0.971871 -0.114570 0
0.996252 -0.103647 0
1.021159 -0.086436 0
1.045631 -0.064941 0
1.068541 -0.041917 0
1.088510 -0.020590 0
1.103822 -0.004698 0
1.111772 0.004064 0
1.000000 -0.000022 0
0.999982 -0.025622 0
1.000039 -0.053721 0
1.000861 -0.087423 0
1.004249 -0.130566 0
1.014442 -0.187818 0
1.041093 -0.262372 0
1.103939 -0.364601 0
1.267507 -0.378087 0
1.315452 -0.277409 0
1.303106 -0.188009 0
1.285004 -0.126702 0
1.267985 -0.080892 0
1.249605 -0.045358 0
1.227640 -0.020401 0
1.201588 -0.007203 0
1.175035 -0.006666 0
1.152616 -0.018733 0
1.141180 -0.036044 0
1.149384 -0.043611 0
1.177195 -0.028264 0
1.211728 0.008404 0
1.234039 0.052024 0
1.241481 0.092228 0
1.238750 0.125871 0
1.228197 0.152241 0
1.210916 0.171183 0
1.187787 0.182460 0
1.159924 0.185796 0
1.128738 0.181108 0
1.095684 0.168724 0
1.061546 0.149468 0
1.025343 0.124523 0
0.984154 0.095415 0
0.935686 0.064462 0
0.882268 0.034043 0
0.831144 0.001973 0
0.791000 -0.038020 0
0.769937 -0.086463 0
0.770213 -0.134988 0
0.789758 -0.172074 0
0.825515 -0.187996 0
0.874334 -0.177246 0
0.932503 -0.139409 0
0.994927 -0.079699 0
1.053706 -0.010653 0
1.098323 0.051696 0
1.126456 0.099847 0
1.140626 0.134603 0
1.143161 0.157497 0
1.136211 0.170095 0
1.121722 0.173835 0
1.101356 0.170003 0
1.076324 0.159883 0
1.047101 0.145112 0
1.013219 0.127987 0
0.973742 0.111051 0
0.928853 0.095486 0
0.881709 0.079400 0
0.838571 0.058298 0
0.806221 0.028216 0
0.788240 -0.011518 0
0.783995 -0.057040 0
0.790387 -0.101576 0
0.804371 -0.139039 0
0.824026 -0.165223 0
0.848382 -0.177329 0
0.876842 -0.173739 0
0.908670 -0.154250 0
0.942754 -0.120401 0
0.977578 -0.075552 0
1.011171 -0.024907 0
1.040045 0.024309 0
1.061654 0.066299 0
1.075501 0.098740 0
1.081676 0.120860 0
1.080593 0.132911 0
1.072795 0.135994 0
1.058814 0.131907 0
1.039119 0.122904 0
1.014247 0.111232 0
0.985179 0.098422 0
0.953791 0.084646 0
0.922961 0.068699 0
0.896046 0.048868 0
0.875897 0.024198 0
0.863927 -0.004774 0
0.859858 -0.036116 0
0.862461 -0.067034 0
0.870312 -0.094676 0
0.882203 -0.116766 0
0.897242 -0.131700 0
0.914769 -0.138490 0
0.934227 -0.136764 0
0.955043 -0.126841 0
0.976556 -0.109814 0
0.997975 -0.087564 0
1.018346 -0.062645 0
1.036493 -0.038031 0
1.051015 -0.016644 0
1.059284 -0.003999 0
1.000000 -0.000025 0
0.998551 -0.024240 0
0.994073 -0.051173 0
0.986395 -0.084591 0
0.975624 -0.130065 0
0.963234 -0.196816 0
0.955549 -0.298883 0
0.974753 -0.487952 0
1.134214 -0.485612 0
1.122406 -0.267617 0
1.020691 -0.146952 0
0.965744 -0.093961 0
0.934063 -0.054179 0
0.904789 -0.018459 0
0.863362 0.010817 0
0.813425 0.027490 0
0.762946 0.026976 0
0.721886 0.008543 0
0.700781 -0.025569 0
0.713227 -0.059968 0
0.760249 -0.068439 0
0.829497 -0.035257 0
0.900573 0.022927 0
0.952918 0.077816 0
0.985754 0.121582 0
1.005142 0.156456 0
1.012422 0.183275 0
1.008212 0.201674 0
0.993311 0.210929 0
0.968412 0.210684 0
0.933531 0.201778 0
0.887725 0.187081 0
0.830109 0.170900 0
0.762435 0.155343 0
0.691597 0.136246 0
0.629601 0.104777 0
0.589198 0.054970 0
0.575368 -0.011969 0
0.582241 -0.086387 0
0.601960 -0.154437 0
0.630287 -0.205529 0
0.666550 -0.232725 0
0.711507 -0.231597 0
0.765262 -0.201161 0
0.826137 -0.145111 0
0.890357 -0.071884 0
0.950102 0.003803 0
0.996081 0.067932 0
1.027458 0.116655 0
1.045641 0.151559 0
1.052075 0.174285 0
1.048177 0.186457 0
1.035104 0.189781 0
1.013447 0.186318 0
0.983101 0.178695 0
0.943837 0.169571 0
0.896943 0.159925 0
0.846976 0.147320 0
0.801483 0.126502 0
0.767870 0.092938 0
0.749798 0.046459 0
0.746193 -0.008172 0
0.752395 -0.063865 0
0.763785 -0.114480 0
0.777862 -0.155964 0
0.793910 -0.185572 0
0.812278 -0.201136 0
0.833656 -0.200999 0
0.858429 -0.184512 0
0.886288 -0.152676 0
0.916212 -0.108408 0
0.946684 -0.056281 0
0.975585 -0.002562 0
0.999614 0.046165 0
1.017239 0.085947 0
1.027851 0.115490 0
1.031266 0.134774 0
1.027505 0.144810 0
1.016704 0.147373 0
0.999202 0.144561 0
0.975857 0.138102 0
0.948437 0.128587 0
0.919742 0.115168 0
0.893139 0.096159 0
0.871625 0.070332 0
0.856981 0.038031 0
0.849533 0.001352 0
0.848421 -0.036583 0
0.852162 -0.072586 0
0.859401 -0.104035 0
0.869178 -0.129038 0
0.880929 -0.146308 0
0.894364 -0.155028 0
0.909306 -0.154842 0
0.925522 -0.145974 0
0.942605 -0.129367 0
0.959934 -0.106729 0
0.976678 -0.080432 0
0.991807 -0.053256 0
1.004135 -0.027487 0
1.011594 -0.011856 0
1.000000 -0.000028 0
0.997166 -0.019691 0
0.988225 -0.041561 0
0.971808 -0.068971 0
0.945234 -0.107402 0
0.903688 -0.167740 0
0.838332 -0.273888 0
0.733481 -0.543262 0
0.548870 -0.525736 0
0.000368 -0.163881 0
0.402339 -0.031343 0
0.335640 -0.040071 0
0.327748 -0.019933 0
0.324271 0.025347 0
0.299743 0.070966 0
0.255753 0.093216 0
0.210352 0.084874 0
0.183083 0.043433 0
0.190111 -0.027383 0
0.231411 -0.103078 0
0.300789 -0.144533 0
0.389583 -0.131919 0
0.492920 -0.071395 0
0.593012 0.007049 0
0.670607 0.073649 0
0.723923 0.125576 0
0.757595 0.168116 0
0.772579 0.201574 0
0.769239 0.225600 0
0.747465 0.240892 0
0.707169 0.249415 0
0.650121 0.252893 0
0.582925 0.249816 0
0.518339 0.233931 0
0.471349 0.197300 0
0.451414 0.136446 0
0.457968 0.056209 0
0.482011 -0.031060 0
0.510321 -0.113052 0
0.536466 -0.183031 0
0.560395 -0.236661 0
0.585344 -0.269214 0
0.615712 -0.275956 0
0.654989 -0.254037 0
0.704026 -0.204792 0
0.760620 -0.134616 0
0.820290 -0.054027 0
0.874340 0.022492 0
0.915827 0.085043 0
0.944400 0.132882 0
0.960445 0.167561 0
0.964493 0.190809 0
0.956932 0.204735 0
0.937926 0.211888 0
0.907921 0.214725 0
0.868914 0.214147 0
0.825784 0.207914 0
0.785966 0.190948 0
0.756667 0.158509 0
0.741498 0.109985 0
0.739425 0.049896 0
0.746515 -0.014112 0
0.757989 -0.074630 0
0.770370 -0.127041 0
0.781967 -0.169161 0
0.792590 -0.199637 0
0.803202 -0.217074 0
0.815417 -0.219889 0
0.830767 -0.206881 0
0.849984 -0.178183 0
0.872693 -0.135947 0
0.897615 -0.084280 0
0.922986 -0.028621 0
0.946156 0.024645 0
0.964648 0.070503 0
0.977227 0.106833 0
0.983186 0.133257 0
0.982148 0.150556 0
0.974072 0.160210 0
0.959466 0.163750 0
0.939695 0.161997 0
0.917129 0.154537 0
0.894818 0.139943 0
0.875692 0.116817 0
0.861720 0.085027 0
0.853541 0.046291 0
0.850711 0.003789 0
0.852181 -0.038743 0
0.856629 -0.078011 0
0.862928 -0.111689 0
0.870315 -0.138291 0
0.878432 -0.156882 0
0.887260 -0.166863 0
0.896975 -0.167917 0
0.907743 -0.160135 0
0.919517 -0.144222 0
0.931938 -0.121631 0
0.944339 -0.094513 0
0.955820 -0.065483 0
0.965346 -0.036425 0
0.971372 -0.018605 0
1.000000 -0.000029 0
0.996221 -0.012461 0
0.984247 -0.025813 0
0.961889 -0.041596 0
0.924538 -0.061942 0
0.862970 -0.089911 0
0.757539 -0.128672 0
0.564940 -0.198486 0
0.073210 -0.000362 0
-0.533301 0.123577 0
0.000000 -0.000071 0
-0.030514 -0.029742 0
-0.048113 -0.042807 0
-0.074078 0.009549 0
-0.099208 0.079338 0
-0.125903 0.116883 0
-0.143027 0.099648 0
-0.134258 0.028785 0
-0.094737 -0.073896 0
-0.042059 -0.170644 0
0.018847 -0.226610 0
0.092712 -0.227387 0
0.181033 -0.180500 0
0.282941 -0.099869 0
0.379940 -0.009326 0
0.454148 0.069471 0
0.503762 0.134622 0
0.531003 0.190033 0
0.536537 0.236047 0
0.521463 0.272759 0
0.489468 0.299125 0
0.448877 0.311329 0
0.412488 0.302686 0
0.393409 0.266923 0
0.398791 0.203175 0
0.426511 0.118160 0
0.467199 0.024377 0
0.506912 -0.064318 0
0.538335 -0.140838 0
0.559751 -0.204509 0
0.572330 -0.254405 0
0.579918 -0.288041 0
0.588541 -0.301240 0
0.604739 -0.289473 0
0.632916 -0.250740 0
0.673313 -0.188146 0
0.722214 -0.109917 0
0.773451 -0.027604 0
0.817823 0.046597 0
0.850932 0.106943 0
0.871933 0.154193 0
0.880558 0.189972 0
0.876796 0.216350 0
0.861224 0.235332 0
0.835878 0.247711 0
0.805180 0.251710 0
0.775758 0.242875 0
0.754361 0.216440 0
0.744918 0.170972 0
0.747203 0.110183 0
0.757993 0.041444 0
0.773056 -0.026735 0