# vtk DataFile Version 2.0
generated by CFD-lab course output (written by Tobias Neckel) 
ASCII

DATASET STRUCTURED_GRID
DIMENSIONS  101 21 1 
POINTS 2121 float

0.000000 0.000000 0
0.100000 0.000000 0
0.200000 0.000000 0
0.300000 0.000000 0
0.400000 0.000000 0
0.500000 0.000000 0
0.600000 0.000000 0
0.700000 0.000000 0
0.800000 0.000000 0
0.900000 0.000000 0
1.000000 0.000000 0
1.100000 0.000000 0
1.200000 0.000000 0
1.300000 0.000000 0
1.400000 0.000000 0
1.500000 0.000000 0
1.600000 0.000000 0
1.700000 0.000000 0
1.800000 0.000000 0
1.900000 0.000000 0
2.000000 0.000000 0
2.100000 0.000000 0
2.200000 0.000000 0
2.300000 0.000000 0
2.400000 0.000000 0
2.500000 0.000000 0
2.600000 0.000000 0
2.700000 0.000000 0
2.800000 0.000000 0
2.900000 0.000000 0
3.000000 0.000000 0
3.100000 0.000000 0
3.200000 0.000000 0
3.300000 0.000000 0
3.400000 0.000000 0
3.500000 0.000000 0
3.600000 0.000000 0
3.700000 0.000000 0
3.800000 0.000000 0
3.900000 0.000000 0
4.000000 0.000000 0
4.100000 0.000000 0
4.200000 0.000000 0
4.300000 0.000000 0
4.400000 0.000000 0
4.500000 0.000000 0
4.600000 0.000000 0
4.700000 0.000000 0
4.800000 0.000000 0
4.900000 0.000000 0
5.000000 0.000000 0
5.100000 0.000000 0
5.200000 0.000000 0
5.300000 0.000000 0
5.400000 0.000000 0
5.500000 0.000000 0
5.600000 0.000000 0
5.700000 0.000000 0
5.800000 0.000000 0
5.900000 0.000000 0
6.000000 0.000000 0
6.100000 0.000000 0
6.200000 0.000000 0
6.300000 0.000000 0
6.400000 0.000000 0
6.500000 0.000000 0
6.600000 0.000000 0
6.700000 0.000000 0
6.800000 0.000000 0
6.900000 0.000000 0
7.000000 0.000000 0
7.100000 0.000000 0
7.200000 0.000000 0
7.300000 0.000000 0
7.400000 0.000000 0
7.500000 0.000000 0
7.600000 0.000000 0
7.700000 0.000000 0
7.800000 0.000000 0
7.900000 0.000000 0
8.000000 0.000000 0
8.100000 0.000000 0
8.200000 0.000000 0
8.300000 0.000000 0
8.400000 0.000000 0
8.500000 0.000000 0
8.600000 0.000000 0
8.700000 0.000000 0
8.800000 0.000000 0
8.900000 0.000000 0
9.000000 0.000000 0
9.100000 0.000000 0
9.200000 0.000000 0
9.300000 0.000000 0
9.400000 0.000000 0
9.500000 0.000000 0
9.600000 0.000000 0
9.700000 0.000000 0
9.800000 0.000000 0
9.900000 0.000000 0
10.000000 0.000000 0
0.000000 0.100000 0
0.100000 0.100000 0
0.200000 0.100000 0
0.300000 0.100000 0
0.400000 0.100000 0
0.500000 0.100000 0
0.600000 0.100000 0
0.700000 0.100000 0
0.800000 0.100000 0
0.900000 0.100000 0
1.000000 0.100000 0
1.100000 0.100000 0
1.200000 0.100000 0
1.300000 0.100000 0
1.400000 0.100000 0
1.500000 0.100000 0
1.600000 0.100000 0
1.700000 0.100000 0
1.800000 0.100000 0
1.900000 0.100000 0
2.000000 0.100000 0
2.100000 0.100000 0
2.200000 0.100000 0
2.300000 0.100000 0
2.400000 0.100000 0
2.500000 0.100000 0
2.600000 0.100000 0
2.700000 0.100000 0
2.800000 0.100000 0
2.900000 0.100000 0
3.000000 0.100000 0
3.100000 0.100000 0
3.200000 0.100000 0
3.300000 0.100000 0
3.400000 0.100000 0
3.500000 0.100000 0
3.600000 0.100000 0
3.700000 0.100000 0
3.800000 0.100000 0
3.900000 0.100000 0
4.000000 0.100000 0
4.100000 0.100000 0
4.200000 0.100000 0
4.300000 0.100000 0
4.400000 0.100000 0
4.500000 0.100000 0
4.600000 0.100000 0
4.700000 0.100000 0
4.800000 0.100000 0
4.900000 0.100000 0
5.000000 0.100000 0
5.100000 0.100000 0
5.200000 0.100000 0
5.300000 0.100000 0
5.400000 0.100000 0
5.500000 0.100000 0
5.600000 0.100000 0
5.700000 0.100000 0
5.800000 0.100000 0
5.900000 0.100000 0
6.000000 0.100000 0
6.100000 0.100000 0
6.200000 0.100000 0
6.300000 0.100000 0
6.400000 0.100000 0
6.500000 0.100000 0
6.600000 0.100000 0
6.700000 0.100000 0
6.800000 0.100000 0
6.900000 0.100000 0
7.000000 0.100000 0
7.100000 0.100000 0
7.200000 0.100000 0
7.300000 0.100000 0
7.400000 0.100000 0
7.500000 0.100000 0
7.600000 0.100000 0
7.700000 0.100000 0
7.800000 0.100000 0
7.900000 0.100000 0
8.000000 0.100000 0
8.100000 0.100000 0
8.200000 0.100000 0
8.300000 0.100000 0
8.400000 0.100000 0
8.500000 0.100000 0
8.600000 0.100000 0
8.700000 0.100000 0
8.800000 0.100000 0
8.900000 0.100000 0
9.000000 0.100000 0
9.100000 0.100000 0
9.200000 0.100000 0
9.300000 0.100000 0
9.400000 0.100000 0
9.500000 0.100000 0
9.600000 0.100000 0
9.700000 0.100000 0
9.800000 0.100000 0
9.900000 0.100000 0
10.000000 0.100000 0
0.000000 0.200000 0
0.100000 0.200000 0
0.200000 0.200000 0
0.300000 0.200000 0
0.400000 0.200000 0
0.500000 0.200000 0
0.600000 0.200000 0
0.700000 0.200000 0
0.800000 0.200000 0
0.900000 0.200000 0
1.000000 0.200000 0
1.100000 0.200000 0
1.200000 0.200000 0
1.300000 0.200000 0
1.400000 0.200000 0
1.500000 0.200000 0
1.600000 0.200000 0
1.700000 0.200000 0
1.800000 0.200000 0
1.900000 0.200000 0
2.000000 0.200000 0
2.100000 0.200000 0
2.200000 0.200000 0
2.300000 0.200000 0
2.400000 0.200000 0
2.500000 0.200000 0
2.600000 0.200000 0
2.700000 0.200000 0
2.800000 0.200000 0
2.900000 0.200000 0
3.000000 0.200000 0
3.100000 0.200000 0
3.200000 0.200000 0
3.300000 0.200000 0
3.400000 0.200000 0
3.500000 0.200000 0
3.600000 0.200000 0
3.700000 0.200000 0
3.800000 0.200000 0
3.900000 0.200000 0
4.000000 0.200000 0
4.100000 0.200000 0
4.200000 0.200000 0
4.300000 0.200000 0
4.400000 0.200000 0
4.500000 0.200000 0
4.600000 0.200000 0
4.700000 0.200000 0
4.800000 0.200000 0
4.900000 0.200000 0
5.000000 0.200000 0
5.100000 0.200000 0
5.200000 0.200000 0
5.300000 0.200000 0
5.400000 0.200000 0
5.500000 0.200000 0
5.600000 0.200000 0
5.700000 0.200000 0
5.800000 0.200000 0
5.900000 0.200000 0
6.000000 0.200000 0
6.100000 0.200000 0
6.200000 0.200000 0
6.300000 0.200000 0
6.400000 0.200000 0
6.500000 0.200000 0
6.600000 0.200000 0
6.700000 0.200000 0
6.800000 0.200000 0
6.900000 0.200000 0
7.000000 0.200000 0
7.100000 0.200000 0
7.200000 0.200000 0
7.300000 0.200000 0
7.400000 0.200000 0
7.500000 0.200000 0
7.600000 0.200000 0
7.700000 0.200000 0
7.800000 0.200000 0
7.900000 0.200000 0
8.000000 0.200000 0
8.100000 0.200000 0
8.200000 0.200000 0
8.300000 0.200000 0
8.400000 0.200000 0
8.500000 0.200000 0
8.600000 0.200000 0
8.700000 0.200000 0
8.800000 0.200000 0
8.900000 0.200000 0
9.000000 0.200000 0
9.100000 0.200000 0
9.200000 0.200000 0
9.300000 0.200000 0
9.400000 0.200000 0
9.500000 0.200000 0
9.600000 0.200000 0
9.700000 0.200000 0
9.800000 0.200000 0
9.900000 0.200000 0
10.000000 0.200000 0
0.000000 0.300000 0
0.100000 0.300000 0
0.200000 0.300000 0
0.300000 0.300000 0
0.400000 0.300000 0
0.500000 0.300000 0
0.600000 0.300000 0
0.700000 0.300000 0
0.800000 0.300000 0
0.900000 0.300000 0
1.000000 0.300000 0
1.100000 0.300000 0
1.200000 0.300000 0
1.300000 0.300000 0
1.400000 0.300000 0
1.500000 0.300000 0
1.600000 0.300000 0
1.700000 0.300000 0
1.800000 0.300000 0
1.900000 0.300000 0
2.000000 0.300000 0
2.100000 0.300000 0
2.200000 0.300000 0
2.300000 0.300000 0
2.400000 0.300000 0
2.500000 0.300000 0
2.600000 0.300000 0
2.700000 0.300000 0
2.800000 0.300000 0
2.900000 0.300000 0
3.000000 0.300000 0
3.100000 0.300000 0
3.200000 0.300000 0
3.300000 0.300000 0
3.400000 0.300000 0
3.500000 0.300000 0
3.600000 0.300000 0
3.700000 0.300000 0
3.800000 0.300000 0
3.900000 0.300000 0
4.000000 0.300000 0
4.100000 0.300000 0
4.200000 0.300000 0
4.300000 0.300000 0
4.400000 0.300000 0
4.500000 0.300000 0
4.600000 0.300000 0
4.700000 0.300000 0
4.800000 0.300000 0
4.900000 0.300000 0
5.000000 0.300000 0
5.100000 0.300000 0
5.200000 0.300000 0
5.300000 0.300000 0
5.400000 0.300000 0
5.500000 0.300000 0
5.600000 0.300000 0
5.700000 0.300000 0
5.800000 0.300000 0
5.900000 0.300000 0
6.000000 0.300000 0
6.100000 0.300000 0
6.200000 0.300000 0
6.300000 0.300000 0
6.400000 0.300000 0
6.500000 0.300000 0
6.600000 0.300000 0
6.700000 0.300000 0
6.800000 0.300000 0
6.900000 0.300000 0
7.000000 0.300000 0
7.100000 0.300000 0
7.200000 0.300000 0
7.300000 0.300000 0
7.400000 0.300000 0
7.500000 0.300000 0
7.600000 0.300000 0
7.700000 0.300000 0
7.800000 0.300000 0
7.900000 0.300000 0
8.000000 0.300000 0
8.100000 0.300000 0
8.200000 0.300000 0
8.300000 0.300000 0
8.400000 0.300000 0
8.500000 0.300000 0
8.600000 0.300000 0
8.700000 0.300000 0
8.800000 0.300000 0
8.900000 0.300000 0
9.000000 0.300000 0
9.100000 0.300000 0
9.200000 0.300000 0
9.300000 0.300000 0
9.400000 0.300000 0
9.500000 0.300000 0
9.600000 0.300000 0
9.700000 0.300000 0
9.800000 0.300000 0
9.900000 0.300000 0
10.000000 0.300000 0
0.000000 0.400000 0
0.100000 0.400000 0
0.200000 0.400000 0
0.300000 0.400000 0
0.400000 0.400000 0
0.500000 0.400000 0
0.600000 0.400000 0
0.700000 0.400000 0
0.800000 0.400000 0
0.900000 0.400000 0
1.000000 0.400000 0
1.100000 0.400000 0
1.200000 0.400000 0
1.300000 0.400000 0
1.400000 0.400000 0
1.500000 0.400000 0
1.600000 0.400000 0
1.700000 0.400000 0
1.800000 0.400000 0
1.900000 0.400000 0
2.000000 0.400000 0
2.100000 0.400000 0
2.200000 0.400000 0
2.300000 0.400000 0
2.400000 0.400000 0
2.500000 0.400000 0
2.600000 0.400000 0
2.700000 0.400000 0
2.800000 0.400000 0
2.900000 0.400000 0
3.000000 0.400000 0
3.100000 0.400000 0
3.200000 0.400000 0
3.300000 0.400000 0
3.400000 0.400000 0
3.500000 0.400000 0
3.600000 0.400000 0
3.700000 0.400000 0
3.800000 0.400000 0
3.900000 0.400000 0
4.000000 0.400000 0
4.100000 0.400000 0
4.200000 0.400000 0
4.300000 0.400000 0
4.400000 0.400000 0
4.500000 0.400000 0
4.600000 0.400000 0
4.700000 0.400000 0
4.800000 0.400000 0
4.900000 0.400000 0
5.000000 0.400000 0
5.100000 0.400000 0
5.200000 0.400000 0
5.300000 0.400000 0
5.400000 0.400000 0
5.500000 0.400000 0
5.600000 0.400000 0
5.700000 0.400000 0
5.800000 0.400000 0
5.900000 0.400000 0
6.000000 0.400000 0
6.100000 0.400000 0
6.200000 0.400000 0
6.300000 0.400000 0
6.400000 0.400000 0
6.500000 0.400000 0
6.600000 0.400000 0
6.700000 0.400000 0
6.800000 0.400000 0
6.900000 0.400000 0
7.000000 0.400000 0
7.100000 0.400000 0
7.200000 0.400000 0
7.300000 0.400000 0
7.400000 0.400000 0
7.500000 0.400000 0
7.600000 0.400000 0
7.700000 0.400000 0
7.800000 0.400000 0
7.900000 0.400000 0
8.000000 0.400000 0
8.100000 0.400000 0
8.200000 0.400000 0
8.300000 0.400000 0
8.400000 0.400000 0
8.500000 0.400000 0
8.600000 0.400000 0
[...]
POINT_DATA 2121 

VECTORS velocity float
0.500000 0.000000 0
-0.000004 0.000000 0
-0.000014 0.000000 0
-0.000030 0.000000 0
-0.000051 0.000000 0
-0.000074 0.000000 0
-0.000096 0.000000 0
-0.000112 0.000000 0
-0.000116 0.000000 0
-0.000101 0.000000 0
-0.000057 0.000000 0
0.000021 0.000000 0
0.000140 0.000000 0
0.000300 0.000000 0
0.000493 0.000000 0
0.000701 0.000000 0
0.000898 0.000000 0
0.001056 0.000000 0
0.001146 0.000000 0
0.001141 0.000000 0
0.001021 0.000000 0
0.000775 0.000000 0
0.000401 0.000000 0
-0.000094 0.000000 0
-0.000690 0.000000 0
-0.001360 0.000000 0
-0.002060 0.000000 0
-0.002700 0.000000 0
-0.003156 0.000000 0
-0.003305 0.000000 0
-0.003061 0.000000 0
-0.002432 0.000000 0
-0.001524 0.000000 0
-0.000490 0.000000 0
0.000561 0.000000 0
0.001539 0.000000 0
0.002377 0.000000 0
0.003040 0.000000 0
0.003512 0.000000 0
0.003788 0.000000 0
0.003870 0.000000 0
0.003761 0.000000 0
0.003462 0.000000 0
0.002971 0.000000 0
0.002284 0.000000 0
0.001388 0.000000 0
0.000270 0.000000 0
-0.001031 0.000000 0
-0.002376 0.000000 0
-0.003676 0.000000 0
-0.004836 0.000000 0
-0.005742 0.000000 0
-0.006263 0.000000 0
-0.006272 0.000000 0
-0.005677 0.000000 0
-0.004475 0.000000 0
-0.002809 0.000000 0
-0.000965 0.000000 0
0.000814 0.000000 0
0.002438 0.000000 0
0.003818 0.000000 0
0.004885 0.000000 0
0.005597 0.000000 0
0.005941 0.000000 0
0.005923 0.000000 0
0.005564 0.000000 0
0.004889 0.000000 0
0.003929 0.000000 0
0.002729 0.000000 0
0.001364 0.000000 0
-0.000042 0.000000 0
-0.001260 0.000000 0
-0.002257 0.000000 0
-0.003067 0.000000 0
-0.003734 0.000000 0
-0.004291 0.000000 0
-0.004744 0.000000 0
-0.005064 0.000000 0
-0.005185 0.000000 0
-0.005009 0.000000 0
-0.004437 0.000000 0
-0.003418 0.000000 0
-0.002015 0.000000 0
-0.000408 0.000000 0
0.001257 0.000000 0
0.002894 0.000000 0
0.004401 0.000000 0
0.005657 0.000000 0
0.006539 0.000000 0
0.006930 0.000000 0
0.006754 0.000000 0
0.006009 0.000000 0
0.004804 0.000000 0
0.003346 0.000000 0
0.001888 0.000000 0
0.000680 0.000000 0
-0.000102 0.000000 0
-0.000539 0.000000 0
-0.000751 0.000000 0
-0.000844 0.000000 0
-0.000972 0.000000 0
1.000000 0.000003 0
1.002599 -0.004724 0
1.010703 -0.010291 0
1.024754 -0.016391 0
1.045232 -0.022823 0
1.072460 -0.029210 0
1.106291 -0.034886 0
1.145696 -0.038926 0
1.188465 -0.040368 0
1.231058 -0.038811 0
1.270173 -0.034713 0
1.303664 -0.028943 0
1.330463 -0.022279 0
1.350151 -0.015238 0
1.362622 -0.008156 0
1.367980 -0.001322 0
1.366581 0.004988 0
1.359063 0.010512 0
1.346359 0.014986 0
1.329681 0.018174 0
1.310457 0.019910 0
1.290251 0.020114 0
1.270656 0.018798 0
1.253199 0.016063 0
1.239258 0.012083 0
1.229997 0.007097 0
1.226304 0.001444 0
1.228651 -0.004256 0
1.236805 -0.009089 0
1.249517 -0.012090 0
1.264458 -0.012524 0
1.278609 -0.010206 0
1.289010 -0.005627 0
1.293517 0.000331 0
1.291136 0.006819 0
1.281825 0.013150 0
1.266192 0.018803 0
1.245240 0.023448 0
1.220176 0.026911 0
1.192283 0.029117 0
1.162858 0.030045 0
1.133186 0.029696 0
1.104539 0.028071 0
1.078178 0.025160 0
1.055350 0.020921 0
1.037260 0.015272 0
1.025024 0.008157 0
1.019591 -0.000134 0
1.021695 -0.008887 0
1.031748 -0.017376 0
1.049678 -0.024967 0
1.074761 -0.030972 0
1.105555 -0.034656 0
1.139909 -0.035330 0
1.174985 -0.032498 0
1.207382 -0.026132 0
1.233509 -0.016950 0
1.250278 -0.006394 0
1.255942 0.004157 0
1.250593 0.013928 0
1.235389 0.022416 0
1.211986 0.029200 0
1.182372 0.034001 0
1.148706 0.036680 0
1.113192 0.037212 0
1.077973 0.035641 0
1.045058 0.032057 0
1.016233 0.026598 0
0.992936 0.019510 0
0.976105 0.011241 0
0.966078 0.002612 0
0.962663 -0.005249 0
0.965316 -0.011720 0
0.973258 -0.016892 0
0.985752 -0.021011 0
1.002182 -0.024288 0
1.022059 -0.026813 0
1.044933 -0.028492 0
1.070219 -0.029018 0
1.096966 -0.027911 0
1.123689 -0.024667 0
1.148331 -0.019026 0
1.168424 -0.011274 0
1.181456 -0.002271 0
1.185509 0.007111 0
1.180038 0.016295 0
1.165549 0.024727 0
1.143167 0.031752 0
1.114637 0.036671 0
1.082259 0.038816 0
1.048737 0.037698 0
1.016893 0.033237 0
0.989242 0.025954 0
0.967540 0.016959 0
0.952491 0.007721 0
0.943767 -0.000167 0
0.940365 -0.005559 0
0.940858 -0.008274 0
0.943494 -0.008579 0
0.946426 -0.004917 0
0.945911 -0.001806 0
1.000000 0.000006 0
1.002916 -0.010712 0
1.011469 -0.022159 0
1.026058 -0.034532 0
1.047383 -0.047709 0
1.076198 -0.061062 0
1.112910 -0.073240 0
1.156890 -0.082178 0
1.205907 -0.085366 0
1.254281 -0.081713 0
1.297431 -0.072611 0
1.333320 -0.060297 0
1.361513 -0.046495 0
1.382114 -0.032167 0
1.395217 -0.017837 0
1.400891 -0.003967 0
1.399461 0.008908 0
1.391534 0.020214 0
1.378066 0.029376 0
1.360345 0.035898 0
1.339918 0.039426 0
1.318476 0.039799 0
1.297733 0.037049 0
1.279311 0.031395 0
1.264648 0.023200 0
1.254973 0.012953 0
1.251334 0.001345 0
1.254552 -0.010501 0
1.264805 -0.020866 0
1.281011 -0.027654 0
1.300540 -0.029093 0
1.319609 -0.024554 0
1.334312 -0.014911 0
1.341864 -0.002129 0
1.341340 0.011689 0
1.333071 0.024941 0
1.318018 0.036581 0
1.297455 0.046011 0
1.272744 0.052951 0
1.245226 0.057312 0
1.216182 0.059091 0
1.186839 0.058313 0
1.158381 0.055002 0
1.131948 0.049183 0
1.108617 0.040913 0
1.089331 0.030322 0
1.074837 0.017666 0
1.065691 0.003326 0
1.062525 -0.012159 0
1.066030 -0.027985 0
1.076575 -0.043015 0
1.094046 -0.055878 0
1.117910 -0.065149 0
1.147246 -0.069431 0
1.180531 -0.067475 0
1.215333 -0.058526 0
1.248175 -0.042898 0
1.274844 -0.022435 0
1.291360 -0.000317 0
1.295838 0.020550 0
1.289221 0.038603 0
1.273277 0.053014 0
1.250098 0.063276 0
1.221908 0.069176 0
1.190911 0.070729 0
1.159174 0.068129 0
1.128513 0.061735 0
1.100384 0.052117 0
1.075779 0.040122 0
1.055192 0.026854 0
1.038706 0.013438 0
1.026316 0.000758 0
1.018190 -0.010597 0
1.014269 -0.020438 0
1.014372 -0.028925 0
1.018405 -0.036306 0
1.026472 -0.042749 0
1.038824 -0.048156 0
1.055631 -0.052028 0
1.076664 -0.053463 0
1.101082 -0.051357 0
1.127352 -0.044726 0
1.153259 -0.033114 0
1.175979 -0.017073 0
1.192466 0.001431 0
1.200518 0.019973 0
1.199907 0.036885 0
1.191462 0.050926 0
1.176549 0.060922 0
1.156897 0.065915 0
1.134369 0.065380 0
1.110718 0.059509 0
1.087397 0.049367 0
1.065473 0.036765 0
1.045649 0.023786 0
1.028370 0.012139 0
1.014047 0.002923 0
1.002835 -0.003116 0
0.994361 -0.005556 0
0.987924 -0.002405 0
0.983161 0.000725 0
1.000000 0.000010 0
1.002510 -0.016197 0
1.010223 -0.033433 0
1.023822 -0.052306 0
1.044503 -0.072964 0
1.073863 -0.094737 0
1.113527 -0.115579 0
1.164017 -0.131924 0
1.224195 -0.137762 0
1.281558 -0.130338 0
1.329104 -0.113755 0
1.366114 -0.093029 0
1.394006 -0.071077 0
1.414047 -0.048946 0
1.426596 -0.026936 0
1.431394 -0.005568 0
1.428522 0.014343 0
1.418431 0.031906 0
1.402091 0.046175 0
1.380951 0.056321 0
1.356781 0.061778 0
1.331514 0.062298 0
1.307094 0.057963 0
1.285321 0.049147 0
1.267726 0.036421 0
1.255563 0.020412 0
1.250006 0.001865 0
1.252424 -0.017728 0
1.263753 -0.035548 0
1.283317 -0.047825 0
1.308313 -0.051124 0
1.334105 -0.043980 0
1.355222 -0.027883 0
1.367236 -0.006699 0
1.368717 0.015610 0
1.360774 0.036469 0
1.345109 0.054416 0
1.323537 0.068720 0
1.297728 0.079137 0
1.269127 0.085676 0
1.238987 0.088429 0
1.208426 0.087495 0
1.178481 0.082960 0
1.150133 0.074922 0
1.124299 0.063537 0
1.101787 0.049051 0
1.083236 0.031797 0
1.069064 0.012178 0
1.059456 -0.009227 0
1.054585 -0.031426 0
1.054762 -0.052983 0
1.060417 -0.072308 0
1.072281 -0.087857 0
1.091236 -0.097952 0
1.117571 -0.100587 0
1.150240 -0.093777 0
1.186544 -0.076463 0
1.222245 -0.049580 0
1.252098 -0.016839 0
1.271122 0.016065 0
1.277627 0.044975 0
1.273169 0.068321 0
1.259786 0.085368 0
1.239666 0.095865 0
1.214956 0.099944 0
1.187627 0.098037 0
1.159361 0.090844 0
1.131497 0.079330 0
1.105026 0.064700 0
1.080654 0.048313 0
1.058850 0.031487 0
1.039798 0.015265 0
1.023401 0.000327 0
1.009518 -0.013074 0
0.998212 -0.025147 0
0.990151 -0.036387 0
0.986462 -0.047230 0
0.988391 -0.057648 0
0.996792 -0.066855 0
1.011720 -0.073358 0
1.032383 -0.075351 0
1.057340 -0.071199 0
1.084726 -0.059898 0
1.112374 -0.041475 0
1.137770 -0.017425 0
1.157945 0.008858 0
1.170724 0.033787 0
1.176006 0.055113 0
1.174391 0.071239 0
1.166823 0.080999 0
1.154374 0.083879 0
1.138102 0.080210 0
1.119011 0.071200 0
1.098123 0.058708 0
1.076525 0.044825 0
1.055288 0.031436 0
1.035222 0.019977 0
1.016868 0.011413 0
1.000731 0.006332 0
0.987349 0.006283 0
0.978978 0.007327 0
1.000000 0.000014 0
1.001972 -0.020938 0
1.008194 -0.043471 0
1.019629 -0.068811 0
1.038081 -0.097750 0
1.066373 -0.130088 0
1.108345 -0.163396 0
1.167406 -0.192848 0
1.248145 -0.202909 0
1.316728 -0.186624 0
1.364921 -0.157170 0
1.397958 -0.125203 0
1.421471 -0.094432 0
1.438724 -0.064761 0
1.450264 -0.035187 0
1.454631 -0.005896 0
1.450621 0.021870 0
1.438226 0.046644 0
1.418429 0.066856 0
1.392916 0.081208 0
1.363778 0.088863 0
1.333303 0.089484 0
1.303786 0.083242 0
1.277303 0.070764 0
1.255468 0.052958 0
1.239350 0.030672 0
1.229666 0.004484 0
1.227507 -0.024249 0
1.234990 -0.051759 0
1.252773 -0.072215 0
1.279336 -0.079883 0
1.311062 -0.071464 0
1.341952 -0.048043 0
1.364506 -0.015626 0
1.373207 0.018148 0
1.368926 0.048547 0
1.354714 0.073816 0
1.333371 0.093389 0
1.307138 0.107358 0
1.277725 0.116050 0
1.246454 0.119790 0
1.214416 0.118818 0
1.182585 0.113293 0
1.151890 0.103364 0
1.123216 0.089260 0
1.097317 0.071385 0
1.074569 0.050389 0
1.054661 0.027105 0
1.036551 0.002319 0
1.019169 -0.023291 0
1.002950 -0.048848 0
0.990539 -0.073399 0
0.985486 -0.095969 0
0.990974 -0.114722 0
1.008324 -0.126480 0
1.036687 -0.127500 0
1.073519 -0.114904 0
1.115032 -0.087990 0
1.156381 -0.049196 0
1.191728 -0.004982 0
1.215436 0.036554 0
1.226653 0.070853 0
1.227029 0.096777 0
1.218523 0.114003 0
1.203161 0.122766 0
1.182854 0.123722 0
1.159296 0.117863 0
1.133916 0.106451 0
1.107864 0.090964 0
1.081991 0.073028 0
1.056771 0.054293 0
1.032255 0.036207 0
1.008228 0.019683 0
0.984764 0.004751 0
0.962762 -0.009557 0
0.944099 -0.024555 0
0.931322 -0.040987 0
0.926499 -0.058484 0
0.930344 -0.075354 0
0.942265 -0.089052 0
0.960899 -0.096975 0
0.984589 -0.097066 0
1.011642 -0.088145 0
1.040389 -0.070114 0
1.069108 -0.044137 0
1.095757 -0.012978 0
1.117529 0.018825 0
1.132728 0.047260 0
1.141181 0.070107 0
1.143124 0.085932 0
1.139033 0.094102 0
1.129526 0.094872 0
1.115361 0.089345 0
1.097452 0.079250 0
1.076841 0.066620 0
1.054582 0.053440 0
1.031662 0.041341 0
1.009069 0.031374 0
0.988013 0.023962 0
0.970126 0.019346 0
0.959283 0.017053 0
1.000000 0.000018 0
1.001136 -0.024393 0
1.004860 -0.051090 0
1.012235 -0.082193 0
1.025468 -0.119709 0
1.048639 -0.165002 0
1.088791 -0.216613 0
1.155594 -0.271727 0
1.271891 -0.287085 0
1.344479 -0.247116 0
1.377760 -0.194988 0
1.393833 -0.149582 0
1.404120 -0.111846 0
1.413902 -0.077741 0
1.423850 -0.042845 0
1.430076 -0.005928 0
1.427282 0.030746 0
1.414574 0.064098 0
1.392991 0.091484 0
1.364404 0.110972 0
1.331119 0.121391 0
1.295709 0.122289 0
1.260850 0.113962 0
1.228958 0.097465 0
1.201619 0.074373 0
1.179277 0.046213 0
1.161492 0.013707 0
1.147462 -0.023052 0
1.139323 -0.060815 0
1.141738 -0.092172 0
1.157598 -0.109415 0
1.187324 -0.106597 0
1.227007 -0.081328 0
1.267824 -0.037956 0
1.298036 0.011188 0
1.310361 0.054959 0
1.308558 0.089969 0
1.296630 0.116294 0
1.277511 0.134781 0
1.253280 0.146358 0
1.225475 0.151736 0
1.195336 0.151362 0
1.163953 0.145485 0
1.132351 0.134291 0
1.101482 0.118110 0
1.071986 0.097697 0
1.043620 0.074453 0
1.014755 0.050196 0
0.983080 0.026264 0
0.947940 0.002174 0
0.912412 -0.024355 0
0.883194 -0.054845 0
0.867302 -0.088292 0
0.867269 -0.120791 0
0.881976 -0.146301 0
0.908903 -0.158973 0
0.945246 -0.154809 0
0.988063 -0.132444 0
1.034053 -0.093536 0
1.079185 -0.042992 0
1.117810 0.010048 0
1.144831 0.056726 0
1.160204 0.093496 0
1.165199 0.119731 0
1.161406 0.135611 0
1.150485 0.141900 0
1.134014 0.139780 0
1.113373 0.130759 0
1.089641 0.116623 0
1.063464 0.099405 0
1.035020 0.081222 0
1.004305 0.063808 0
0.971847 0.047817 0
0.939445 0.032392 0
0.910174 0.015519 0
0.887343 -0.004946 0
0.873337 -0.029628 0
0.869037 -0.056668 0
0.873689 -0.082619 0
0.885731 -0.103912 0
0.903528 -0.117673 0
0.925654 -0.121940 0
0.950883 -0.115696 0
0.978083 -0.098940 0
1.006119 -0.072792 0
1.033725 -0.039562 0
1.059142 -0.003185 0
1.079800 0.031461 0
1.094546 0.060842 0
1.103010 0.083146 0
1.105159 0.097475 0
1.101222 0.103880 0
1.091642 0.103271 0
1.077052 0.097225 0
1.058232 0.087692 0
1.036106 0.076610 0
1.011815 0.065486 0
0.986883 0.055058 0
0.963336 0.045271 0
0.943618 0.035008 0
0.931804 0.028550 0
1.000000 0.000021 0
0.999950 -0.025799 0
0.999997 -0.054570 0
1.000892 -0.089419 0
1.004485 -0.134154 0
1.015037 -0.193412 0
1.042172 -0.270352 0
1.105484 -0.375949 0
1.269430 -0.391797 0
1.315122 -0.292496 0
1.300165 -0.206527 0
1.280287 -0.151566 0
1.265493 -0.114504 0
1.260450 -0.084493 0
1.266913 -0.051364 0
1.280099 -0.009329 0
1.286075 0.037372 0
1.280098 0.080935 0
1.263565 0.117025 0
1.238269 0.143079 0
1.206107 0.157558 0
1.169456 0.159753 0
1.131269 0.149992 0
1.094330 0.129995 0
1.059507 0.102639 0
1.024755 0.070798 0
0.987657 0.036298 0
0.949145 -0.002080 0
0.914003 -0.046036 0
0.893902 -0.090491 0
0.897864 -0.125470 0
0.926151 -0.140875 0
0.974175 -0.128545 0
1.034327 -0.086657 0
1.095491 -0.024391 0
1.143274 0.038022 0
1.170951 0.087544 0
1.183333 0.124433 0
1.184030 0.150706 0
1.175488 0.168084 0
1.159554 0.177732 0
1.137770 0.180338 0
1.111461 0.176277 0
1.081633 0.165835 0
1.048638 0.149624 0
1.011686 0.129246 0
0.969043 0.107619 0
0.919884 0.087645 0
0.867032 0.069133 0
0.817583 0.047376 0
0.779609 0.015898 0
0.758003 -0.028289 0
0.752990 -0.080045 0
0.761455 -0.129398 0
0.780100 -0.168115 0
0.806841 -0.190771 0
0.840494 -0.194066 0
0.879953 -0.176800 0
0.923604 -0.140319 0
0.969131 -0.088741 0
1.013314 -0.029095 0
1.050576 0.028457 0
1.077397 0.076408 0
1.093874 0.112800 0
1.100779 0.137477 0
1.099196 0.151112 0
1.090266 0.154974 0
1.074983 0.150822 0
1.054011 0.140871 0
1.027629 0.127647 0
0.996044 0.113450 0
0.960172 0.099379 0
0.922474 0.084543 0
0.886993 0.066424 0
0.858193 0.042546 0
0.839200 0.012283 0
0.830576 -0.022680 0
0.830864 -0.058834 0
0.837963 -0.092048 0
0.850099 -0.118889 0
0.866088 -0.136896 0
0.885194 -0.144421 0
0.906871 -0.140575 0
0.930552 -0.125351 0
0.955531 -0.099779 0
0.980925 -0.066002 0
1.005636 -0.027251 0
1.027800 0.011853 0
1.045392 0.046893 0
1.057519 0.075316 0
1.063704 0.095885 0
1.063787 0.108385 0
1.057857 0.113510 0
1.046227 0.112654 0
1.029462 0.107560 0
1.008476 0.099851 0
0.984692 0.090558 0
0.960117 0.079846 0
0.937228 0.067220 0
0.918595 0.050871 0
0.907377 0.040115 0
1.000000 0.000025 0
0.998517 -0.024390 0
0.994003 -0.052032 0
0.986330 -0.086681 0
0.975640 -0.133854 0
0.963420 -0.202690 0
0.955946 -0.307062 0
0.975117 -0.498987 0
1.132666 -0.496725 0
1.114719 -0.277853 0
1.005716 -0.160157 0
0.942494 -0.114913 0
0.898552 -0.092011 0
0.875674 -0.079163 0
0.878801 -0.062495 0
0.905739 -0.025090 0
0.939482 0.030746 0
0.958509 0.086607 0
0.964503 0.133313 0
0.957499 0.168430 0
0.936972 0.190203 0
0.902904 0.197127 0
0.855838 0.189089 0
0.797151 0.169227 0
0.730556 0.143947 0
0.663354 0.118062 0
0.605320 0.089317 0
0.566123 0.050600 0
0.550896 -0.005573 0
0.557803 -0.076034 0
0.583777 -0.141666 0
0.626234 -0.182910 0
0.683163 -0.189507 0
0.752463 -0.159274 0
0.830305 -0.097761 0
0.907921 -0.020504 0
0.970402 0.049907 0
1.012756 0.103212 0
1.038999 0.142624 0
1.051644 0.170832 0
1.052505 0.189453 0
1.043086 0.199454 0
1.024484 0.201620 0
0.997040 0.197113 0
0.960038 0.188057 0
0.912293 0.177291 0
0.854456 0.166254 0
0.792042 0.152206 0
0.735574 0.128565 0
0.695803 0.089596 0
0.677777 0.035224 0
0.678674 -0.028227 0
0.690308 -0.091745 0
0.706747 -0.147902 0
0.725839 -0.191688 0
0.747833 -0.219369 0
0.773942 -0.227923 0
0.805145 -0.215555 0
0.841379 -0.182717 0
0.881351 -0.132704 0
0.922838 -0.071399 0
0.962533 -0.007360 0
0.995197 0.050195 0
1.018930 0.096347 0
1.033493 0.130288 0
1.039169 0.152412 0
1.036421 0.163991 0
1.025650 0.167012 0
1.007113 0.163976 0
0.981178 0.157372 0
0.948997 0.148677 0
0.913252 0.137376 0
0.878179 0.120996 0
0.848433 0.096674 0
0.827370 0.063313 0
0.816028 0.022672 0
0.813376 -0.021292 0
0.817074 -0.064054 0
0.824917 -0.101853 0
0.835491 -0.132037 0
0.848142 -0.152768 0
0.862734 -0.162723 0
0.879342 -0.161055 0
0.897958 -0.147601 0
0.918294 -0.123167 0
0.939742 -0.089671 0
0.961418 -0.050063 0
0.982142 -0.008299 0
0.999924 0.031119 0
1.013368 0.064829 0
1.021640 0.091201 0
1.024245 0.109720 0
1.020980 0.120823 0
1.011943 0.125613 0
0.997631 0.125435 0
0.979079 0.121372 0
0.957944 0.113837 0
0.936402 0.102513 0
0.916821 0.086785 0
0.901297 0.064851 0
0.891799 0.050350 0
1.000000 0.000027 0
0.997133 -0.019802 0
0.988133 -0.042382 0
0.971649 -0.071057 0
0.945024 -0.111245 0
0.903474 -0.173719 0
0.838278 -0.282050 0
0.734222 -0.552670 0
0.548832 -0.531401 0
-0.000238 -0.165549 0
0.392193 -0.034306 0
0.315900 -0.044405 0
0.301848 -0.047685 0
0.321395 -0.064743 0
0.349088 -0.081429 0
0.393019 -0.070011 0
0.453935 -0.015398 0
0.510650 0.055914 0
0.548636 0.118034 0
0.567044 0.170609 0
0.562403 0.212153 0
0.533105 0.240887 0
0.480907 0.255745 0
0.412200 0.255278 0
0.339773 0.236435 0
0.281307 0.196033 0
0.252124 0.133529 0
0.257771 0.052343 0
0.291630 -0.037717 0
0.336786 -0.123373 0
0.382586 -0.193903 0
0.428925 -0.240264 0
0.480155 -0.254777 0
0.540537 -0.233801 0
0.611635 -0.179852 0
0.691145 -0.102077 0
0.770167 -0.017294 0
0.834402 0.055834 0
0.880349 0.111816 0
0.910224 0.154577 0
0.925245 0.186289 0
0.926247 0.208357 0
0.913603 0.222322 0
0.887229 0.230280 0
0.847362 0.234370 0
0.796562 0.234827 0
0.741805 0.227870 0
0.693750 0.206526 0
0.662054 0.165372 0
0.650375 0.105172 0
0.655593 0.033026 0
0.670612 -0.040820 0
0.688177 -0.108120 0
0.704423 -0.164930 0
0.718452 -0.209202 0
0.731474 -0.238875 0
0.745993 -0.251379 0
0.764726 -0.244239 0
0.789359 -0.216528 0
0.819781 -0.170202 0
0.854252 -0.110279 0
0.890112 -0.043905 0
0.923308 0.020008 0
0.949872 0.074502 0
0.968475 0.117236 0
0.978564 0.148181 0
0.979922 0.168490 0
0.972497 0.180128 0
0.956547 0.185342 0
0.933131 0.185762 0
0.904694 0.181375 0
0.875155 0.170196 0
0.849003 0.149361 0
0.829725 0.117234 0
0.818686 0.074952 0
0.815200 0.026278 0
0.817465 -0.023726 0
0.823308 -0.070376 0
0.830948 -0.110465 0
0.839310 -0.142115 0
0.848032 -0.164140 0
0.857348 -0.175622 0
0.867850 -0.175801 0
0.880138 -0.164306 0
0.894477 -0.141567 0
0.910637 -0.109129 0
0.927926 -0.069656 0
0.945328 -0.026660 0
0.961363 0.015660 0
0.974337 0.053593 0
0.983155 0.085000 0
0.987092 0.109036 0
0.985761 0.125804 0
0.979179 0.135994 0
0.967868 0.140413 0
0.952956 0.139528 0
0.936123 0.133225 0
0.919348 0.120958 0
0.904509 0.102313 0
0.893006 0.075882 0
0.885820 0.058494 0
1.000000 0.000028 0
0.996194 -0.012522 0
0.984144 -0.026548 0
0.961652 -0.043572 0
0.924094 -0.065680 0
0.862219 -0.095945 0
0.756314 -0.137810 0
0.563158 -0.209542 0
0.074080 0.000491 0
-0.528165 0.129085 0
0.000000 0.000029 0
-0.034532 -0.035787 0
-0.055794 -0.097507 0
-0.033214 -0.126405 0
-0.026398 -0.134121 0
-0.010761 -0.129937 0
0.032436 -0.086885 0
0.102188 -0.008094 0
0.165665 0.076919 0
0.205166 0.154662 0
0.217091 0.224142 0
0.204020 0.278624 0
0.175935 0.309994 0
0.145590 0.310361 0
0.128057 0.274839 0
0.134229 0.205710 0
0.165942 0.112853 0
0.215117 0.011093 0
0.264945 -0.084590 0
0.306988 -0.166992 0
0.339753 -0.233806 0
0.366181 -0.280480 0
0.392768 -0.301121 0
0.427094 -0.290757 0
0.474552 -0.248371 0
0.535875 -0.179038 0
0.606801 -0.093353 0
0.676623 -0.006972 0
0.732528 0.066800 0
0.771973 0.125935 0
0.795302 0.173429 0
0.802686 0.211095 0
0.794372 0.240637 0
0.771455 0.263354 0
0.737305 0.278723 0
0.698849 0.282847 0
0.665793 0.269066 0
0.646858 0.231956 0
0.645554 0.171940 0
0.659288 0.096056 0
0.681978 0.014985 0
0.706054 -0.060811 0
0.726588 -0.125557 0
0.741364 -0.178179 0
0.749932 -0.218740 0
0.753544 -0.246911 0
0.755113 -0.261176 0
0.758640 -0.258923 0
0.767848 -0.237774 0
0.784626 -0.197599 0
0.808347 -0.141731 0
0.836482 -0.076417 0
0.865635 -0.009567 0
0.891241 0.051177 0
0.910662 0.101594 0