# vtk DataFile Version 2.0
generated by CFD-lab course output (written by Tobias Neckel) 
ASCII

DATASET STRUCTURED_GRID
DIMENSIONS  101 21 1 
POINTS 2121 float

0.000000 0.000000 0
0.100000 0.000000 0
0.200000 0.000000 0
0.300000 0.000000 0
0.400000 0.000000 0
0.500000 0.000000 0
0.600000 0.000000 0
0.700000 0.000000 0
0.800000 0.000000 0
0.900000 0.000000 0
1.000000 0.000000 0
1.100000 0.000000 0
1.200000 0.000000 0
1.300000 0.000000 0
1.400000 0.000000 0
1.500000 0.000000 0
1.600000 0.000000 0
1.700000 0.000000 0
1.800000 0.000000 0
1.900000 0.000000 0
2.000000 0.000000 0
2.100000 0.000000 0
2.200000 0.000000 0
2.300000 0.000000 0
2.400000 0.000000 0
2.500000 0.000000 0
2.600000 0.000000 0
2.700000 0.000000 0
2.800000 0.000000 0
2.900000 0.000000 0
3.000000 0.000000 0
3.100000 0.000000 0
3.200000 0.000000 0
3.300000 0.000000 0
3.400000 0.000000 0
3.500000 0.000000 0
3.600000 0.000000 0
3.700000 0.000000 0
3.800000 0.000000 0
3.900000 0.000000 0
4.000000 0.000000 0
4.100000 0.000000 0
4.200000 0.000000 0
4.300000 0.000000 0
4.400000 0.000000 0
4.500000 0.000000 0
4.600000 0.000000 0
4.700000 0.000000 0
4.800000 0.000000 0
4.900000 0.000000 0
5.000000 0.000000 0
5.100000 0.000000 0
5.200000 0.000000 0
5.300000 0.000000 0
5.400000 0.000000 0
5.500000 0.000000 0
5.600000 0.000000 0
5.700000 0.000000 0
5.800000 0.000000 0
5.900000 0.000000 0
6.000000 0.000000 0
6.100000 0.000000 0
6.200000 0.000000 0
6.300000 0.000000 0
6.400000 0.000000 0
6.500000 0.000000 0
6.600000 0.000000 0
6.700000 0.000000 0
6.800000 0.000000 0
6.900000 0.000000 0
7.000000 0.000000 0
7.100000 0.000000 0
7.200000 0.000000 0
7.300000 0.000000 0
7.400000 0.000000 0
7.500000 0.000000 0
7.600000 0.000000 0
7.700000 0.000000 0
7.800000 0.000000 0
7.900000 0.000000 0
8.000000 0.000000 0
8.100000 0.000000 0
8.200000 0.000000 0
8.300000 0.000000 0
8.400000 0.000000 0
8.500000 0.000000 0
8.600000 0.000000 0
8.700000 0.000000 0
8.800000 0.000000 0
8.900000 0.000000 0
9.000000 0.000000 0
9.100000 0.000000 0
9.200000 0.000000 0
9.300000 0.000000 0
9.400000 0.000000 0
9.500000 0.000000 0
9.600000 0.000000 0
9.700000 0.000000 0
9.800000 0.000000 0
9.900000 0.000000 0
10.000000 0.000000 0
0.000000 0.100000 0
0.100000 0.100000 0
0.200000 0.100000 0
0.300000 0.100000 0
0.400000 0.100000 0
0.500000 0.100000 0
0.600000 0.100000 0
0.700000 0.100000 0
0.800000 0.100000 0
0.900000 0.100000 0
1.000000 0.100000 0
1.100000 0.100000 0
1.200000 0.100000 0
1.300000 0.100000 0
1.400000 0.100000 0
1.500000 0.100000 0
1.600000 0.100000 0
1.700000 0.100000 0
1.800000 0.100000 0
1.900000 0.100000 0
2.000000 0.100000 0
2.100000 0.100000 0
2.200000 0.100000 0
2.300000 0.100000 0
2.400000 0.100000 0
2.500000 0.100000 0
2.600000 0.100000 0
2.700000 0.100000 0
2.800000 0.100000 0
2.900000 0.100000 0
3.000000 0.100000 0
3.100000 0.100000 0
3.200000 0.100000 0
3.300000 0.100000 0
3.400000 0.100000 0
3.500000 0.100000 0
3.600000 0.100000 0
3.700000 0.100000 0
3.800000 0.100000 0
3.900000 0.100000 0
4.000000 0.100000 0
4.100000 0.100000 0
4.200000 0.100000 0
4.300000 0.100000 0
4.400000 0.100000 0
4.500000 0.100000 0
4.600000 0.100000 0
4.700000 0.100000 0
4.800000 0.100000 0
4.900000 0.100000 0
5.000000 0.100000 0
5.100000 0.100000 0
5.200000 0.100000 0
5.300000 0.100000 0
5.400000 0.100000 0
5.500000 0.100000 0
5.600000 0.100000 0
5.700000 0.100000 0
5.800000 0.100000 0
5.900000 0.100000 0
6.000000 0.100000 0
6.100000 0.100000 0
6.200000 0.100000 0
6.300000 0.100000 0
6.400000 0.100000 0
6.500000 0.100000 0
6.600000 0.100000 0
6.700000 0.100000 0
6.800000 0.100000 0
6.900000 0.100000 0
7.000000 0.100000 0
7.100000 0.100000 0
7.200000 0.100000 0
7.300000 0.100000 0
7.400000 0.100000 0
7.500000 0.100000 0
7.600000 0.100000 0
7.700000 0.100000 0
7.800000 0.100000 0
7.900000 0.100000 0
8.000000 0.100000 0
8.100000 0.100000 0
8.200000 0.100000 0
8.300000 0.100000 0
8.400000 0.100000 0
8.500000 0.100000 0
8.600000 0.100000 0
8.700000 0.100000 0
8.800000 0.100000 0
8.900000 0.100000 0
9.000000 0.100000 0
9.100000 0.100000 0
9.200000 0.100000 0
9.300000 0.100000 0
9.400000 0.100000 0
9.500000 0.100000 0
9.600000 0.100000 0
9.700000 0.100000 0
9.800000 0.100000 0
9.900000 0.100000 0
10.000000 0.100000 0
0.000000 0.200000 0
0.100000 0.200000 0
0.200000 0.200000 0
0.300000 0.200000 0
0.400000 0.200000 0
0.500000 0.200000 0
0.600000 0.200000 0
0.700000 0.200000 0
0.800000 0.200000 0
0.900000 0.200000 0
1.000000 0.200000 0
1.100000 0.200000 0
1.200000 0.200000 0
1.300000 0.200000 0
1.400000 0.200000 0
1.500000 0.200000 0
1.600000 0.200000 0
1.700000 0.200000 0
1.800000 0.200000 0
1.900000 0.200000 0
2.000000 0.200000 0
2.100000 0.200000 0
2.200000 0.200000 0
2.300000 0.200000 0
2.400000 0.200000 0
2.500000 0.200000 0
2.600000 0.200000 0
2.700000 0.200000 0
2.800000 0.200000 0
2.900000 0.200000 0
3.000000 0.200000 0
3.100000 0.200000 0
3.200000 0.200000 0
3.300000 0.200000 0
3.400000 0.200000 0
3.500000 0.200000 0
3.600000 0.200000 0
3.700000 0.200000 0
3.800000 0.200000 0
3.900000 0.200000 0
4.000000 0.200000 0
4.100000 0.200000 0
4.200000 0.200000 0
4.300000 0.200000 0
4.400000 0.200000 0
4.500000 0.200000 0
4.600000 0.200000 0
4.700000 0.200000 0
4.800000 0.200000 0
4.900000 0.200000 0
5.000000 0.200000 0
5.100000 0.200000 0
5.200000 0.200000 0
5.300000 0.200000 0
5.400000 0.200000 0
5.500000 0.200000 0
5.600000 0.200000 0
5.700000 0.200000 0
5.800000 0.200000 0
5.900000 0.200000 0
6.000000 0.200000 0
6.100000 0.200000 0
6.200000 0.200000 0
6.300000 0.200000 0
6.400000 0.200000 0
6.500000 0.200000 0
6.600000 0.200000 0
6.700000 0.200000 0
6.800000 0.200000 0
6.900000 0.200000 0
7.000000 0.200000 0
7.100000 0.200000 0
7.200000 0.200000 0
7.300000 0.200000 0
7.400000 0.200000 0
7.500000 0.200000 0
7.600000 0.200000 0
7.700000 0.200000 0
7.800000 0.200000 0
7.900000 0.200000 0
8.000000 0.200000 0
8.100000 0.200000 0
8.200000 0.200000 0
8.300000 0.200000 0
8.400000 0.200000 0
8.500000 0.200000 0
8.600000 0.200000 0
8.700000 0.200000 0
8.800000 0.200000 0
8.900000 0.200000 0
9.000000 0.200000 0
9.100000 0.200000 0
9.200000 0.200000 0
9.300000 0.200000 0
9.400000 0.200000 0
9.500000 0.200000 0
9.600000 0.200000 0
9.700000 0.200000 0
9.800000 0.200000 0
9.900000 0.200000 0
10.000000 0.200000 0
0.000000 0.300000 0
0.100000 0.300000 0
0.200000 0.300000 0
0.300000 0.300000 0
0.400000 0.300000 0
0.500000 0.300000 0
0.600000 0.300000 0
0.700000 0.300000 0
0.800000 0.300000 0
0.900000 0.300000 0
1.000000 0.300000 0
1.100000 0.300000 0
1.200000 0.300000 0
1.300000 0.300000 0
1.400000 0.300000 0
1.500000 0.300000 0
1.600000 0.300000 0
1.700000 0.300000 0
1.800000 0.300000 0
1.900000 0.300000 0
2.000000 0.300000 0
2.100000 0.300000 0
2.200000 0.300000 0
2.300000 0.300000 0
2.400000 0.300000 0
2.500000 0.300000 0
2.600000 0.300000 0
2.700000 0.300000 0
2.800000 0.300000 0
2.900000 0.300000 0
3.000000 0.300000 0
3.100000 0.300000 0
3.200000 0.300000 0
3.300000 0.300000 0
3.400000 0.300000 0
3.500000 0.300000 0
3.600000 0.300000 0
3.700000 0.300000 0
3.800000 0.300000 0
3.900000 0.300000 0
4.000000 0.300000 0
4.100000 0.300000 0
4.200000 0.300000 0
4.300000 0.300000 0
4.400000 0.300000 0
4.500000 0.300000 0
4.600000 0.300000 0
4.700000 0.300000 0
4.800000 0.300000 0
4.900000 0.300000 0
5.000000 0.300000 0
5.100000 0.300000 0
5.200000 0.300000 0
5.300000 0.300000 0
5.400000 0.300000 0
5.500000 0.300000 0
5.600000 0.300000 0
5.700000 0.300000 0
5.800000 0.300000 0
5.900000 0.300000 0
6.000000 0.300000 0
6.100000 0.300000 0
6.200000 0.300000 0
6.300000 0.300000 0
6.400000 0.300000 0
6.500000 0.300000 0
6.600000 0.300000 0
6.700000 0.300000 0
6.800000 0.300000 0
6.900000 0.300000 0
7.000000 0.300000 0
7.100000 0.300000 0
7.200000 0.300000 0
7.300000 0.300000 0
7.400000 0.300000 0
7.500000 0.300000 0
7.600000 0.300000 0
7.700000 0.300000 0
7.800000 0.300000 0
7.900000 0.300000 0
8.000000 0.300000 0
8.100000 0.300000 0
8.200000 0.300000 0
8.300000 0.300000 0
8.400000 0.300000 0
8.500000 0.300000 0
8.600000 0.300000 0
8.700000 0.300000 0
8.800000 0.300000 0
8.900000 0.300000 0
9.000000 0.300000 0
9.100000 0.300000 0
9.200000 0.300000 0
9.300000 0.300000 0
9.400000 0.300000 0
9.500000 0.300000 0
9.600000 0.300000 0
9.700000 0.300000 0
9.800000 0.300000 0
9.900000 0.300000 0
10.000000 0.300000 0
0.000000 0.400000 0
0.100000 0.400000 0
0.200000 0.400000 0
0.300000 0.400000 0
0.400000 0.400000 0
0.500000 0.400000 0
0.600000 0.400000 0
0.700000 0.400000 0
0.800000 0.400000 0
0.900000 0.400000 0
1.000000 0.400000 0
1.100000 0.400000 0
1.200000 0.400000 0
1.300000 0.400000 0
1.400000 0.400000 0
1.500000 0.400000 0
1.600000 0.400000 0
1.700000 0.400000 0
1.800000 0.400000 0
1.900000 0.400000 0
2.000000 0.400000 0
2.100000 0.400000 0
2.200000 0.400000 0
2.300000 0.400000 0
2.400000 0.400000 0
2.500000 0.400000 0
2.600000 0.400000 0
2.700000 0.400000 0
2.800000 0.400000 0
2.900000 0.400000 0
3.000000 0.400000 0
3.100000 0.400000 0
3.200000 0.400000 0
3.300000 0.400000 0
3.400000 0.400000 0
3.500000 0.400000 0
3.600000 0.400000 0
3.700000 0.400000 0
3.800000 0.400000 0
3.900000 0.400000 0
4.000000 0.400000 0
4.100000 0.400000 0
4.200000 0.400000 0
4.300000 0.400000 0
4.400000 0.400000 0
4.500000 0.400000 0
4.600000 0.400000 0
4.700000 0.400000 0
4.800000 0.400000 0
4.900000 0.400000 0
5.000000 0.400000 0
5.100000 0.400000 0
5.200000 0.400000 0
5.300000 0.400000 0
5.400000 0.400000 0
5.500000 0.400000 0
5.600000 0.400000 0
5.700000 0.400000 0
5.800000 0.400000 0
5.900000 0.400000 0
6.000000 0.400000 0
6.100000 0.400000 0
6.200000 0.400000 0
6.300000 0.400000 0
6.400000 0.400000 0
6.500000 0.400000 0
6.600000 0.400000 0
6.700000 0.400000 0
6.800000 0.400000 0
6.900000 0.400000 0
7.000000 0.400000 0
7.100000 0.400000 0
7.200000 0.400000 0
7.300000 0.400000 0
7.400000 0.400000 0
7.500000 0.400000 0
7.600000 0.400000 0
7.700000 0.400000 0
7.800000 0.400000 0
7.900000 0.400000 0
8.000000 0.400000 0
8.100000 0.400000 0
8.200000 0.400000 0
8.300000 0.400000 0
8.400000 0.400000 0
8.500000 0.400000 0
8.600000 0.400000 0
[...]
POINT_DATA 2121 

VECTORS velocity float
0.500000 0.000000 0
-0.001402 0.000000 0
-0.002814 0.000000 0
-0.002118 0.000000 0
-0.000552 0.000000 0
0.000669 0.000000 0
0.001571 0.000000 0
0.002282 0.000000 0
0.002795 0.000000 0
0.003045 0.000000 0
0.002986 0.000000 0
0.002627 0.000000 0
0.002027 0.000000 0
0.001265 0.000000 0
0.000423 0.000000 0
-0.000425 0.000000 0
-0.001225 0.000000 0
-0.001945 0.000000 0
-0.002569 0.000000 0
-0.003096 0.000000 0
-0.003535 0.000000 0
-0.003898 0.000000 0
-0.004199 0.000000 0
-0.004450 0.000000 0
-0.004663 0.000000 0
-0.004845 0.000000 0
-0.005004 0.000000 0
-0.005144 0.000000 0
-0.005270 0.000000 0
-0.005383 0.000000 0
-0.005487 0.000000 0
-0.005580 0.000000 0
-0.005666 0.000000 0
-0.005743 0.000000 0
-0.005813 0.000000 0
-0.005875 0.000000 0
-0.005930 0.000000 0
-0.005976 0.000000 0
-0.006015 0.000000 0
-0.006047 0.000000 0
-0.006070 0.000000 0
-0.006085 0.000000 0
-0.006092 0.000000 0
-0.006091 0.000000 0
-0.006081 0.000000 0
-0.006063 0.000000 0
-0.006036 0.000000 0
-0.006001 0.000000 0
-0.005958 0.000000 0
-0.005905 0.000000 0
-0.005845 0.000000 0
-0.005776 0.000000 0
-0.005698 0.000000 0
-0.005612 0.000000 0
-0.005517 0.000000 0
-0.005415 0.000000 0
-0.005303 0.000000 0
-0.005184 0.000000 0
-0.005057 0.000000 0
-0.004921 0.000000 0
-0.004778 0.000000 0
-0.004627 0.000000 0
-0.004468 0.000000 0
-0.004302 0.000000 0
-0.004128 0.000000 0
-0.003947 0.000000 0
-0.003759 0.000000 0
-0.003564 0.000000 0
-0.003362 0.000000 0
-0.003154 0.000000 0
-0.002939 0.000000 0
-0.002718 0.000000 0
-0.002490 0.000000 0
-0.002257 0.000000 0
-0.002019 0.000000 0
-0.001774 0.000000 0
-0.001525 0.000000 0
-0.001270 0.000000 0
-0.001010 0.000000 0
-0.000746 0.000000 0
-0.000477 0.000000 0
-0.000204 0.000000 0
0.000073 0.000000 0
0.000353 0.000000 0
0.000638 0.000000 0
0.000925 0.000000 0
0.001216 0.000000 0
0.001509 0.000000 0
0.001806 0.000000 0
0.002104 0.000000 0
0.002405 0.000000 0
0.002708 0.000000 0
0.003012 0.000000 0
0.003319 0.000000 0
0.003626 0.000000 0
0.003935 0.000000 0
0.004246 0.000000 0
0.004558 0.000000 0
0.004873 0.000000 0
0.005195 0.000000 0
0.005489 0.000000 0
1.000000 -0.000055 0
0.965009 -0.030058 0
0.969603 -0.046351 0
0.984647 -0.050792 0
1.001768 -0.049134 0
1.018299 -0.046755 0
1.033677 -0.044096 0
1.046472 -0.039945 0
1.054133 -0.033695 0
1.053915 -0.025882 0
1.044648 -0.017911 0
1.027198 -0.011241 0
1.003882 -0.006778 0
0.977479 -0.004704 0
0.950465 -0.004668 0
0.924615 -0.006053 0
0.900945 -0.008217 0
0.879840 -0.010649 0
0.861256 -0.013003 0
0.844913 -0.015083 0
0.830436 -0.016814 0
0.817438 -0.018193 0
0.805571 -0.019255 0
0.794540 -0.020050 0
0.784112 -0.020634 0
0.774107 -0.021054 0
0.764388 -0.021351 0
0.754856 -0.021558 0
0.745439 -0.021700 0
0.736087 -0.021797 0
0.726763 -0.021863 0
0.717445 -0.021908 0
0.708116 -0.021939 0
0.698767 -0.021963 0
0.689391 -0.021981 0
0.679985 -0.021998 0
0.670548 -0.022014 0
0.661080 -0.022031 0
0.651581 -0.022049 0
0.642053 -0.022068 0
0.632497 -0.022089 0
0.622915 -0.022112 0
0.613307 -0.022136 0
0.603675 -0.022162 0
0.594021 -0.022190 0
0.584346 -0.022219 0
0.574651 -0.022248 0
0.564937 -0.022279 0
0.555205 -0.022311 0
0.545455 -0.022343 0
0.535689 -0.022376 0
0.525907 -0.022409 0
0.516110 -0.022443 0
0.506297 -0.022477 0
0.496471 -0.022511 0
0.486630 -0.022545 0
0.476775 -0.022579 0
0.466908 -0.022613 0
0.457027 -0.022646 0
0.447134 -0.022680 0
0.437229 -0.022713 0
0.427311 -0.022746 0
0.417382 -0.022778 0
0.407441 -0.022810 0
0.397489 -0.022841 0
0.387526 -0.022872 0
0.377553 -0.022903 0
0.367568 -0.022933 0
0.357574 -0.022962 0
0.347570 -0.022990 0
0.337556 -0.023018 0
0.327532 -0.023046 0
0.317500 -0.023072 0
0.307459 -0.023098 0
0.297409 -0.023123 0
0.287351 -0.023147 0
0.277284 -0.023170 0
0.267211 -0.023193 0
0.257130 -0.023215 0
0.247042 -0.023235 0
0.236947 -0.023255 0
0.226846 -0.023274 0
0.216739 -0.023293 0
0.206626 -0.023310 0
0.196508 -0.023326 0
0.186385 -0.023342 0
0.176258 -0.023356 0
0.166126 -0.023370 0
0.155990 -0.023382 0
0.145852 -0.023394 0
0.135710 -0.023405 0
0.125565 -0.023414 0
0.115419 -0.023423 0
0.105271 -0.023432 0
0.095122 -0.023439 0
0.084973 -0.023447 0
0.074825 -0.023456 0
0.064680 -0.023467 0
0.054541 -0.023489 0
0.044413 -0.023420 0
0.034186 -0.024222 0
1.000000 0.000382 0
0.967121 -0.030864 0
0.966067 -0.058276 0
0.974560 -0.070816 0
0.988067 -0.072317 0
1.004052 -0.070591 0
1.021258 -0.066874 0
1.037555 -0.059178 0
1.048969 -0.046189 0
1.050399 -0.029285 0
1.039999 -0.012080 0
1.019467 0.001941 0
0.992452 0.010865 0
0.962824 0.014532 0
0.933610 0.013947 0
0.906674 0.010569 0
0.882828 0.005789 0
0.862158 0.000666 0
0.844339 -0.004134 0
0.828885 -0.008281 0
0.815288 -0.011666 0
0.803095 -0.014317 0
0.791932 -0.016328 0
0.781504 -0.017812 0
0.771587 -0.018884 0
0.762016 -0.019640 0
0.752670 -0.020161 0
0.743464 -0.020513 0
0.734337 -0.020742 0
0.725247 -0.020887 0
0.716166 -0.020973 0
0.707076 -0.021021 0
0.697964 -0.021043 0
0.688824 -0.021051 0
0.679650 -0.021050 0
0.670443 -0.021045 0
0.661200 -0.021040 0
0.651923 -0.021035 0
0.642614 -0.021033 0
0.633272 -0.021034 0
0.623900 -0.021037 0
0.614500 -0.021045 0
0.605072 -0.021055 0
0.595619 -0.021068 0
0.586142 -0.021084 0
0.576641 -0.021103 0
0.567119 -0.021123 0
0.557575 -0.021146 0
0.548012 -0.021170 0
0.538430 -0.021196 0
0.528829 -0.021222 0
0.519210 -0.021250 0
0.509574 -0.021279 0
0.499921 -0.021308 0
0.490252 -0.021338 0
0.480568 -0.021368 0
0.470868 -0.021398 0
0.461153 -0.021429 0
0.451423 -0.021459 0
0.441680 -0.021490 0
0.431922 -0.021520 0
0.422151 -0.021551 0
0.412366 -0.021581 0
0.402569 -0.021610 0
0.392759 -0.021639 0
0.382937 -0.021668 0
0.373102 -0.021697 0
0.363256 -0.021725 0
0.353399 -0.021752 0
0.343530 -0.021779 0
0.333651 -0.021805 0
0.323761 -0.021831 0
0.313862 -0.021856 0
0.303952 -0.021880 0
0.294033 -0.021903 0
0.284105 -0.021926 0
0.274168 -0.021948 0
0.264222 -0.021969 0
0.254269 -0.021990 0
0.244308 -0.022010 0
0.234339 -0.022028 0
0.224364 -0.022046 0
0.214382 -0.022064 0
0.204394 -0.022080 0
0.194400 -0.022096 0
0.184400 -0.022110 0
0.174396 -0.022124 0
0.164387 -0.022137 0
0.154374 -0.022149 0
0.144357 -0.022160 0
0.134337 -0.022170 0
0.124313 -0.022180 0
0.114288 -0.022189 0
0.104261 -0.022197 0
0.094232 -0.022206 0
0.084202 -0.022214 0
0.074172 -0.022224 0
0.064143 -0.022237 0
0.054112 -0.022256 0
0.044074 -0.022168 0
0.034019 -0.022911 0
1.000000 0.000797 0
0.970178 -0.034754 0
0.969831 -0.069789 0
0.976486 -0.088798 0
0.988406 -0.094639 0
1.005075 -0.095968 0
1.026304 -0.093630 0
1.050149 -0.083699 0
1.070479 -0.062593 0
1.075413 -0.032977 0
1.062103 -0.003055 0
1.034626 0.020216 0
0.999734 0.033763 0
0.963447 0.038021 0
0.929716 0.035351 0
0.900411 0.028585 0
0.875856 0.020138 0
0.855524 0.011662 0
0.838577 0.004077 0
0.824173 -0.002242 0
0.811598 -0.007253 0
0.800299 -0.011083 0
0.789869 -0.013928 0
0.780017 -0.015989 0
0.770538 -0.017449 0
0.761293 -0.018460 0
0.752185 -0.019143 0
0.743148 -0.019590 0
0.734139 -0.019870 0
0.725131 -0.020035 0
0.716105 -0.020123 0
0.707050 -0.020159 0
0.697960 -0.020163 0
0.688832 -0.020148 0
0.679665 -0.020123 0
0.670460 -0.020094 0
0.661216 -0.020064 0
0.651937 -0.020037 0
0.642623 -0.020014 0
0.633278 -0.019996 0
0.623902 -0.019983 0
0.614497 -0.019974 0
0.605066 -0.019971 0
0.595609 -0.019971 0
0.586129 -0.019976 0
0.576626 -0.019985 0
0.567101 -0.019996 0
0.557555 -0.020011 0
0.547990 -0.020028 0
0.538406 -0.020047 0
0.528804 -0.020068 0
0.519184 -0.020090 0
0.509547 -0.020114 0
0.499893 -0.020139 0
0.490224 -0.020164 0
0.480539 -0.020191 0
0.470839 -0.020218 0
0.461124 -0.020245 0
0.451394 -0.020272 0
0.441650 -0.020300 0
0.431893 -0.020328 0
0.422122 -0.020355 0
0.412338 -0.020383 0
0.402541 -0.020410 0
0.392731 -0.020438 0
0.382909 -0.020464 0
0.373075 -0.020491 0
0.363230 -0.020517 0
0.353373 -0.020542 0
0.343505 -0.020567 0
0.333626 -0.020592 0
0.323737 -0.020616 0
0.313838 -0.020639 0
0.303929 -0.020662 0
0.294010 -0.020684 0
0.284083 -0.020705 0
0.274147 -0.020726 0
0.264202 -0.020746 0
0.254250 -0.020766 0
0.244289 -0.020784 0
0.234322 -0.020802 0
0.224347 -0.020819 0
0.214366 -0.020835 0
0.204378 -0.020850 0
0.194385 -0.020865 0
0.184387 -0.020879 0
0.174383 -0.020892 0
0.164375 -0.020904 0
0.154363 -0.020916 0
0.144346 -0.020926 0
0.134327 -0.020936 0
0.124304 -0.020945 0
0.114279 -0.020954 0
0.104252 -0.020963 0
0.094224 -0.020971 0
0.084194 -0.020979 0
0.074162 -0.020988 0
0.064129 -0.020999 0
0.054093 -0.021013 0
0.044050 -0.020919 0
0.034008 -0.021613 0
1.000000 0.001165 0
0.970782 -0.039328 0
0.969618 -0.080583 0
0.974006 -0.105397 0
0.984072 -0.116920 0
1.001524 -0.124512 0
1.028722 -0.127980 0
1.066245 -0.119395 0
1.107352 -0.087507 0
1.118649 -0.036975 0
1.098382 0.012629 0
1.057213 0.048217 0
1.008416 0.065939 0
0.961512 0.068433 0
0.921394 0.060851 0
0.889392 0.048282 0
0.864654 0.034514 0
0.845501 0.021767 0
0.830267 0.011023 0
0.817625 0.002487 0
0.806623 -0.004021 0
0.796624 -0.008836 0
0.787218 -0.012312 0
0.778146 -0.014767 0
0.769247 -0.016465 0
0.760423 -0.017610 0
0.751617 -0.018361 0
0.742792 -0.018834 0
0.733931 -0.019113 0
0.725022 -0.019262 0
0.716061 -0.019324 0
0.707048 -0.019330 0
0.697983 -0.019302 0
0.688868 -0.019255 0
0.679707 -0.019200 0
0.670502 -0.019142 0
0.661256 -0.019087 0
0.651972 -0.019036 0
0.642653 -0.018992 0
0.633301 -0.018954 0
0.623919 -0.018923 0
0.614509 -0.018900 0
0.605073 -0.018882 0
0.595611 -0.018871 0
0.586126 -0.018865 0
0.576619 -0.018863 0
0.567091 -0.018866 0
0.557542 -0.018873 0
0.547974 -0.018883 0
0.538388 -0.018896 0
0.528784 -0.018911 0
0.519162 -0.018929 0
0.509524 -0.018948 0
0.499870 -0.018968 0
0.490199 -0.018990 0
0.480513 -0.019013 0
0.470813 -0.019036 0
0.461097 -0.019060 0
0.451367 -0.019085 0
0.441623 -0.019110 0
0.431866 -0.019135 0
0.422095 -0.019160 0
0.412311 -0.019185 0
0.402514 -0.019211 0
0.392705 -0.019236 0
0.382883 -0.019260 0
0.373050 -0.019285 0
0.363205 -0.019309 0
0.353348 -0.019333 0
0.343481 -0.019356 0
0.333602 -0.019379 0
0.323714 -0.019401 0
0.313815 -0.019423 0
0.303907 -0.019444 0
0.293989 -0.019465 0
0.284062 -0.019485 0
0.274127 -0.019505 0
0.264183 -0.019523 0
0.254231 -0.019541 0
0.244271 -0.019559 0
0.234305 -0.019575 0
0.224331 -0.019591 0
0.214350 -0.019607 0
0.204364 -0.019621 0
0.194371 -0.019635 0
0.184374 -0.019648 0
0.174371 -0.019660 0
0.164363 -0.019672 0
0.154352 -0.019683 0
0.144336 -0.019693 0
0.134318 -0.019702 0
0.124296 -0.019711 0
0.114271 -0.019719 0
0.104244 -0.019727 0
0.094216 -0.019735 0
0.084185 -0.019743 0
0.074153 -0.019751 0
0.064119 -0.019759 0
0.054081 -0.019768 0
0.044040 -0.019674 0
0.034005 -0.020324 0
1.000000 0.001412 0
0.970334 -0.043007 0
0.966443 -0.089013 0
0.966521 -0.119259 0
0.972409 -0.138172 0
0.988222 -0.156641 0
1.020808 -0.174384 0
1.078938 -0.178373 0
1.171815 -0.131052 0
1.192831 -0.040074 0
1.155341 0.042301 0
1.087348 0.094088 0
1.015186 0.113357 0
0.952784 0.108923 0
0.904947 0.091337 0
0.871104 0.069176 0
0.847860 0.047866 0
0.831550 0.029870 0
0.819359 0.015758 0
0.809427 0.005190 0
0.800636 -0.002483 0
0.792349 -0.007927 0
0.784225 -0.011716 0
0.776093 -0.014303 0
0.767870 -0.016032 0
0.759527 -0.017156 0
0.751056 -0.017858 0
0.742463 -0.018271 0
0.733759 -0.018488 0
0.724954 -0.018576 0
0.716059 -0.018581 0
0.707086 -0.018535 0
0.698044 -0.018460 0
0.688940 -0.018372 0
0.679781 -0.018279 0
0.670573 -0.018189 0
0.661321 -0.018105 0
0.652030 -0.018029 0
0.642703 -0.017962 0
0.633343 -0.017905 0
0.623953 -0.017857 0
0.614536 -0.017819 0
0.605092 -0.017788 0
0.595624 -0.017765 0
0.586133 -0.017749 0
0.576621 -0.017738 0
0.567089 -0.017733 0
0.557536 -0.017732 0
0.547965 -0.017736 0
0.538376 -0.017743 0
0.528769 -0.017753 0
0.519146 -0.017765 0
0.509506 -0.017780 0
0.499850 -0.017797 0
0.490178 -0.017815 0
0.480491 -0.017834 0
0.470790 -0.017854 0
0.461074 -0.017875 0
0.451343 -0.017897 0
0.441599 -0.017919 0
0.431842 -0.017942 0
0.422070 -0.017965 0
0.412286 -0.017988 0
0.402490 -0.018011 0
0.392681 -0.018034 0
0.382859 -0.018056 0
0.373026 -0.018079 0
0.363181 -0.018101 0
0.353325 -0.018123 0
0.343458 -0.018145 0
0.333580 -0.018166 0
0.323692 -0.018187 0
0.313794 -0.018207 0
0.303887 -0.018227 0
0.293969 -0.018246 0
0.284043 -0.018265 0
0.274108 -0.018283 0
0.264165 -0.018301 0
0.254214 -0.018317 0
0.244255 -0.018334 0
0.234289 -0.018349 0
0.224316 -0.018364 0
0.214336 -0.018379 0
0.204350 -0.018392 0
0.194358 -0.018405 0
0.184361 -0.018417 0
0.174359 -0.018429 0
0.164353 -0.018440 0
0.154342 -0.018450 0
0.144327 -0.018459 0
0.134309 -0.018468 0
0.124287 -0.018476 0
0.114263 -0.018484 0
0.104237 -0.018492 0
0.094208 -0.018499 0
0.084178 -0.018505 0
0.074146 -0.018512 0
0.064111 -0.018518 0
0.054074 -0.018524 0
0.044035 -0.018432 0
0.034006 -0.019040 0
1.000000 0.001472 0
0.969192 -0.044408 0
0.960670 -0.092772 0
0.953550 -0.127371 0
0.950842 -0.154637 0
0.958144 -0.188934 0
0.987286 -0.234728 0
1.062349 -0.286445 0
1.257910 -0.217455 0
1.307816 -0.036570 0
1.239133 0.102028 0
1.120425 0.172275 0
1.011951 0.184394 0
0.929486 0.162550 0
0.874500 0.126396 0
0.842211 0.089220 0
0.824125 0.057903 0
0.813474 0.034089 0
0.806180 0.016950 0
0.800081 0.004997 0
0.794135 -0.003173 0
0.787901 -0.008674 0
0.781232 -0.012323 0
0.774119 -0.014698 0
0.766604 -0.016205 0
0.758747 -0.017123 0
0.750607 -0.017645 0
0.742236 -0.017904 0
0.733677 -0.017993 0
0.724964 -0.017973 0
0.716125 -0.017889 0
0.707183 -0.017769 0
0.698155 -0.017633 0
0.689054 -0.017493 0
0.679892 -0.017357 0
0.670676 -0.017230 0
0.661414 -0.017115 0
0.652112 -0.017013 0
0.642774 -0.016923 0
0.633403 -0.016847 0
0.624003 -0.016783 0
0.614576 -0.016729 0
0.605123 -0.016686 0
0.595648 -0.016652 0
0.586150 -0.016626 0
0.576632 -0.016608 0
0.567094 -0.016595 0
0.557537 -0.016588 0
0.547962 -0.016585 0
0.538369 -0.016587 0
0.528759 -0.016592 0
0.519133 -0.016600 0
0.509491 -0.016611 0
0.499833 -0.016623 0
0.490160 -0.016638 0
0.480472 -0.016654 0
0.470770 -0.016671 0
0.461053 -0.016690 0
0.451322 -0.016709 0
0.441578 -0.016728 0
0.431820 -0.016748 0
0.422048 -0.016769 0
0.412264 -0.016790 0
0.402467 -0.016811 0
0.392658 -0.016831 0
0.382837 -0.016852 0
0.373004 -0.016873 0
0.363160 -0.016894 0
0.353304 -0.016914 0
0.343437 -0.016934 0
0.333560 -0.016953 0
0.323672 -0.016973 0
0.313775 -0.016991 0
0.303868 -0.017010 0
0.293951 -0.017028 0
0.284025 -0.017045 0
0.274091 -0.017062 0
0.264148 -0.017078 0
0.254198 -0.017094 0
0.244239 -0.017109 0
0.234274 -0.017123 0
0.224301 -0.017137 0
0.214322 -0.017151 0
0.204337 -0.017163 0
0.194346 -0.017175 0
0.184350 -0.017187 0
0.174348 -0.017197 0
0.164342 -0.017208 0
0.154332 -0.017217 0
0.144318 -0.017226 0
0.134300 -0.017234 0
0.124280 -0.017242 0
0.114256 -0.017249 0
0.104230 -0.017256 0
0.094202 -0.017262 0
0.084172 -0.017268 0
0.074140 -0.017273 0
0.064106 -0.017278 0
0.054071 -0.017281 0
0.044033 -0.017193 0
0.034008 -0.017760 0
1.000000 0.001302 0
0.967600 -0.042317 0
0.953043 -0.089372 0
0.936020 -0.125438 0
0.919234 -0.158780 0
0.906227 -0.209107 0
0.907121 -0.294621 0
0.953834 -0.465039 0
1.182152 -0.392574 0
1.290993 -0.037370 0
1.311134 0.213604 0
1.181759 0.305171 0
1.009780 0.288184 0
0.882385 0.230250 0
0.821352 0.162476 0
0.799107 0.103402 0
0.792946 0.060438 0
0.792033 0.031634 0
0.791801 0.012954 0
0.790573 0.001022 0
0.787913 -0.006534 0
0.783878 -0.011274 0
0.778675 -0.014203 0
0.772538 -0.015962 0
0.765671 -0.016967 0
0.758241 -0.017486 0
0.750380 -0.017694 0
0.742187 -0.017708 0
0.733737 -0.017605 0
0.725089 -0.017436 0
0.716284 -0.017234 0
0.707355 -0.017020 0
0.698327 -0.016809 0
0.689219 -0.016610 0
0.680044 -0.016425 0
0.670814 -0.016259 0
0.661537 -0.016112 0
0.652219 -0.015983 0
0.642865 -0.015872 0
0.633481 -0.015777 0
0.624068 -0.015697 0
0.614629 -0.015630 0
0.605166 -0.015576 0
0.595681 -0.015532 0
0.586176 -0.015497 0
0.576650 -0.015471 0
0.567106 -0.015451 0
0.557543 -0.015438 0
0.547964 -0.015430 0
0.538367 -0.015427 0
0.528754 -0.015428 0
0.519125 -0.015432 0
0.509481 -0.015439 0
0.499821 -0.015448 0
0.490146 -0.015460 0
0.480457 -0.015473 0
0.470753 -0.015487 0
0.461035 -0.015503 0
0.451304 -0.015519 0
0.441558 -0.015537 0
0.431800 -0.015554 0
0.422028 -0.015573 0
0.412244 -0.015591 0
0.402447 -0.015610 0
0.392638 -0.015629 0
0.382817 -0.015648 0
0.372984 -0.015667 0
0.363140 -0.015686 0
0.353284 -0.015704 0
0.343418 -0.015723 0
0.333541 -0.015741 0
0.323654 -0.015758 0
0.313757 -0.015776 0
0.303850 -0.015793 0
0.293934 -0.015809 0
0.284009 -0.015825 0
0.274075 -0.015841 0
0.264133 -0.015856 0
0.254183 -0.015870 0
0.244225 -0.015884 0
0.234260 -0.015898 0
0.224288 -0.015911 0
0.214310 -0.015923 0
0.204325 -0.015935 0
0.194335 -0.015946 0
0.184339 -0.015956 0
0.174338 -0.015966 0
0.164333 -0.015976 0
0.154323 -0.015984 0
0.144310 -0.015993 0
0.134293 -0.016000 0
0.124272 -0.016007 0
0.114249 -0.016014 0
0.104224 -0.016020 0
0.094196 -0.016025 0
0.084167 -0.016030 0
0.074135 -0.016034 0
0.064103 -0.016038 0
0.054069 -0.016040 0
0.044034 -0.015957 0
0.034011 -0.016482 0
1.000000 0.000896 0
0.965958 -0.036091 0
0.945237 -0.077194 0
0.917572 -0.109570 0
0.883767 -0.140858 0
0.840431 -0.192842 0
0.779796 -0.298364 0
0.686712 -0.577514 0
0.507088 -0.570667 0
-0.063525 -0.181630 0
0.666984 0.195165 0
0.822823 0.457526 0
0.781824 0.467655 0
0.735732 0.334854 0
0.727344 0.193537 0
0.739918 0.101475 0
0.756512 0.048813 0
0.769899 0.019053 0
0.778412 0.002212 0
0.782487 -0.007330 0
0.783060 -0.012710 0
0.781012 -0.015686 0
0.777043 -0.017251 0
0.771676 -0.017982 0
0.765290 -0.018216 0
0.758157 -0.018159 0
0.750474 -0.017938 0
0.742383 -0.017630 0
0.733986 -0.017284 0
0.725359 -0.016931 0
0.716555 -0.016589 0
0.707615 -0.016269 0
0.698569 -0.015975 0
0.689439 -0.015711 0
0.680240 -0.015476 0
0.670987 -0.015270 0
0.661688 -0.015091 0
0.652349 -0.014936 0
0.642977 -0.014804 0
0.633575 -0.014692 0
0.624146 -0.014598 0
0.614693 -0.014519 0
0.605219 -0.014455 0
0.595723 -0.014402 0
0.586208 -0.014360 0
0.576675 -0.014327 0
0.567124 -0.014302 0
0.557555 -0.014284 0
0.547971 -0.014271 0
0.538370 -0.014264 0
0.528753 -0.014261 0
0.519121 -0.014261 0
0.509473 -0.014265 0
0.499811 -0.014271 0
0.490135 -0.014279 0
0.480444 -0.014290 0
0.470739 -0.014302 0
0.461020 -0.014315 0
0.451287 -0.014329 0
0.441541 -0.014344 0
0.431782 -0.014360 0
0.422011 -0.014376 0
0.412226 -0.014393 0
0.402429 -0.014410 0
0.392620 -0.014427 0
0.382799 -0.014444 0
0.372966 -0.014461 0
0.363122 -0.014478 0
0.353267 -0.014495 0
0.343401 -0.014512 0
0.333524 -0.014528 0
0.323637 -0.014544 0
0.313740 -0.014560 0
0.303834 -0.014576 0
0.293918 -0.014591 0
0.283994 -0.014605 0
0.274060 -0.014620 0
0.264119 -0.014633 0
0.254169 -0.014647 0
0.244212 -0.014660 0
0.234247 -0.014672 0
0.224276 -0.014684 0
0.214298 -0.014695 0
0.204314 -0.014706 0
0.194324 -0.014716 0
0.184329 -0.014726 0
0.174329 -0.014735 0
0.164324 -0.014744 0
0.154315 -0.014752 0
0.144302 -0.014760 0
0.134286 -0.014766 0
0.124266 -0.014773 0
0.114244 -0.014779 0
0.104219 -0.014784 0
0.094192 -0.014789 0
0.084163 -0.014793 0
0.074132 -0.014796 0
0.064100 -0.014798 0
0.054068 -0.014799 0
0.044035 -0.014722 0
0.034015 -0.015206 0
1.000000 0.000300 0
0.964784 -0.026196 0
0.939574 -0.056988 0
0.904072 -0.079975 0
0.857709 -0.097653 0
0.791927 -0.121155 0
0.685633 -0.156928 0
0.487714 -0.208363 0
-0.002732 -0.001542 0
-0.704007 0.127923 0
0.000000 -0.018035 0
0.209383 0.160608 0
0.403843 0.359160 0
0.514036 0.268606 0
0.607040 0.142154 0
0.676387 0.058083 0
0.723365 0.014291 0
0.752643 -0.006446 0
0.769447 -0.015832 0
0.777896 -0.019842 0
0.780820 -0.021291 0
0.780058 -0.021507 0
0.776800 -0.021136 0
0.771824 -0.020497 0
0.765645 -0.019756 0
0.758612 -0.018998 0
0.750966 -0.018269 0
0.742875 -0.017590 0
0.734456 -0.016971 0
0.725794 -0.016416 0
0.716951 -0.015924 0
0.707970 -0.015490 0
0.698883 -0.015112 0
0.689715 -0.014783 0
0.680481 -0.014499 0
0.671195 -0.014254 0
0.661866 -0.014045 0
0.652501 -0.013868 0
0.643105 -0.013717 0
0.633683 -0.013590 0
0.624236 -0.013483 0
0.614768 -0.013395 0
0.605280 -0.013322 0
0.595773 -0.013262 0
0.586248 -0.013214 0
0.576705 -0.013175 0