# vtk DataFile Version 2.0
generated by CFD-lab course output (written by Tobias Neckel) 
ASCII

DATASET STRUCTURED_GRID
DIMENSIONS  101 21 1 
POINTS 2121 float

0.000000 0.000000 0
0.100000 0.000000 0
0.200000 0.000000 0
0.300000 0.000000 0
0.400000 0.000000 0
0.500000 0.000000 0
0.600000 0.000000 0
0.700000 0.000000 0
0.800000 0.000000 0
0.900000 0.000000 0
1.000000 0.000000 0
1.100000 0.000000 0
1.200000 0.000000 0
1.300000 0.000000 0
1.400000 0.000000 0
1.500000 0.000000 0
1.600000 0.000000 0
1.700000 0.000000 0
1.800000 0.000000 0
1.900000 0.000000 0
2.000000 0.000000 0
2.100000 0.000000 0
2.200000 0.000000 0
2.300000 0.000000 0
2.400000 0.000000 0
2.500000 0.000000 0
2.600000 0.000000 0
2.700000 0.000000 0
2.800000 0.000000 0
2.900000 0.000000 0
3.000000 0.000000 0
3.100000 0.000000 0
3.200000 0.000000 0
3.300000 0.000000 0
3.400000 0.000000 0
3.500000 0.000000 0
3.600000 0.000000 0
3.700000 0.000000 0
3.800000 0.000000 0
3.900000 0.000000 0
4.000000 0.000000 0
4.100000 0.000000 0
4.200000 0.000000 0
4.300000 0.000000 0
4.400000 0.000000 0
4.500000 0.000000 0
4.600000 0.000000 0
4.700000 0.000000 0
4.800000 0.000000 0
4.900000 0.000000 0
5.000000 0.000000 0
5.100000 0.000000 0
5.200000 0.000000 0
5.300000 0.000000 0
5.400000 0.000000 0
5.500000 0.000000 0
5.600000 0.000000 0
5.700000 0.000000 0
5.800000 0.000000 0
5.900000 0.000000 0
6.000000 0.000000 0
6.100000 0.000000 0
6.200000 0.000000 0
6.300000 0.000000 0
6.400000 0.000000 0
6.500000 0.000000 0
6.600000 0.000000 0
6.700000 0.000000 0
6.800000 0.000000 0
6.900000 0.000000 0
7.000000 0.000000 0
7.100000 0.000000 0
7.200000 0.000000 0
7.300000 0.000000 0
7.400000 0.000000 0
7.500000 0.000000 0
7.600000 0.000000 0
7.700000 0.000000 0
7.800000 0.000000 0
7.900000 0.000000 0
8.000000 0.000000 0
8.100000 0.000000 0
8.200000 0.000000 0
8.300000 0.000000 0
8.400000 0.000000 0
8.500000 0.000000 0
8.600000 0.000000 0
8.700000 0.000000 0
8.800000 0.000000 0
8.900000 0.000000 0
9.000000 0.000000 0
9.100000 0.000000 0
9.200000 0.000000 0
9.300000 0.000000 0
9.400000 0.000000 0
9.500000 0.000000 0
9.600000 0.000000 0
9.700000 0.000000 0
9.800000 0.000000 0
9.900000 0.000000 0
10.000000 0.000000 0
0.000000 0.100000 0
0.100000 0.100000 0
0.200000 0.100000 0
0.300000 0.100000 0
0.400000 0.100000 0
0.500000 0.100000 0
0.600000 0.100000 0
0.700000 0.100000 0
0.800000 0.100000 0
0.900000 0.100000 0
1.000000 0.100000 0
1.100000 0.100000 0
1.200000 0.100000 0
1.300000 0.100000 0
1.400000 0.100000 0
1.500000 0.100000 0
1.600000 0.100000 0
1.700000 0.100000 0
1.800000 0.100000 0
1.900000 0.100000 0
2.000000 0.100000 0
2.100000 0.100000 0
2.200000 0.100000 0
2.300000 0.100000 0
2.400000 0.100000 0
2.500000 0.100000 0
2.600000 0.100000 0
2.700000 0.100000 0
2.800000 0.100000 0
2.900000 0.100000 0
3.000000 0.100000 0
3.100000 0.100000 0
3.200000 0.100000 0
3.300000 0.100000 0
3.400000 0.100000 0
3.500000 0.100000 0
3.600000 0.100000 0
3.700000 0.100000 0
3.800000 0.100000 0
3.900000 0.100000 0
4.000000 0.100000 0
4.100000 0.100000 0
4.200000 0.100000 0
4.300000 0.100000 0
4.400000 0.100000 0
4.500000 0.100000 0
4.600000 0.100000 0
4.700000 0.100000 0
4.800000 0.100000 0
4.900000 0.100000 0
5.000000 0.100000 0
5.100000 0.100000 0
5.200000 0.100000 0
5.300000 0.100000 0
5.400000 0.100000 0
5.500000 0.100000 0
5.600000 0.100000 0
5.700000 0.100000 0
5.800000 0.100000 0
5.900000 0.100000 0
6.000000 0.100000 0
6.100000 0.100000 0
6.200000 0.100000 0
6.300000 0.100000 0
6.400000 0.100000 0
6.500000 0.100000 0
6.600000 0.100000 0
6.700000 0.100000 0
6.800000 0.100000 0
6.900000 0.100000 0
7.000000 0.100000 0
7.100000 0.100000 0
7.200000 0.100000 0
7.300000 0.100000 0
7.400000 0.100000 0
7.500000 0.100000 0
7.600000 0.100000 0
7.700000 0.100000 0
7.800000 0.100000 0
7.900000 0.100000 0
8.000000 0.100000 0
8.100000 0.100000 0
8.200000 0.100000 0
8.300000 0.100000 0
8.400000 0.100000 0
8.500000 0.100000 0
8.600000 0.100000 0
8.700000 0.100000 0
8.800000 0.100000 0
8.900000 0.100000 0
9.000000 0.100000 0
9.100000 0.100000 0
9.200000 0.100000 0
9.300000 0.100000 0
9.400000 0.100000 0
9.500000 0.100000 0
9.600000 0.100000 0
9.700000 0.100000 0
9.800000 0.100000 0
9.900000 0.100000 0
10.000000 0.100000 0
0.000000 0.200000 0
0.100000 0.200000 0
0.200000 0.200000 0
0.300000 0.200000 0
0.400000 0.200000 0
0.500000 0.200000 0
0.600000 0.200000 0
0.700000 0.200000 0
0.800000 0.200000 0
0.900000 0.200000 0
1.000000 0.200000 0
1.100000 0.200000 0
1.200000 0.200000 0
1.300000 0.200000 0
1.400000 0.200000 0
1.500000 0.200000 0
1.600000 0.200000 0
1.700000 0.200000 0
1.800000 0.200000 0
1.900000 0.200000 0
2.000000 0.200000 0
2.100000 0.200000 0
2.200000 0.200000 0
2.300000 0.200000 0
2.400000 0.200000 0
2.500000 0.200000 0
2.600000 0.200000 0
2.700000 0.200000 0
2.800000 0.200000 0
2.900000 0.200000 0
3.000000 0.200000 0
3.100000 0.200000 0
3.200000 0.200000 0
3.300000 0.200000 0
3.400000 0.200000 0
3.500000 0.200000 0
3.600000 0.200000 0
3.700000 0.200000 0
3.800000 0.200000 0
3.900000 0.200000 0
4.000000 0.200000 0
4.100000 0.200000 0
4.200000 0.200000 0
4.300000 0.200000 0
4.400000 0.200000 0
4.500000 0.200000 0
4.600000 0.200000 0
4.700000 0.200000 0
4.800000 0.200000 0
4.900000 0.200000 0
5.000000 0.200000 0
5.100000 0.200000 0
5.200000 0.200000 0
5.300000 0.200000 0
5.400000 0.200000 0
5.500000 0.200000 0
5.600000 0.200000 0
5.700000 0.200000 0
5.800000 0.200000 0
5.900000 0.200000 0
6.000000 0.200000 0
6.100000 0.200000 0
6.200000 0.200000 0
6.300000 0.200000 0
6.400000 0.200000 0
6.500000 0.200000 0
6.600000 0.200000 0
6.700000 0.200000 0
6.800000 0.200000 0
6.900000 0.200000 0
7.000000 0.200000 0
7.100000 0.200000 0
7.200000 0.200000 0
7.300000 0.200000 0
7.400000 0.200000 0
7.500000 0.200000 0
7.600000 0.200000 0
7.700000 0.200000 0
7.800000 0.200000 0
7.900000 0.200000 0
8.000000 0.200000 0
8.100000 0.200000 0
8.200000 0.200000 0
8.300000 0.200000 0
8.400000 0.200000 0
8.500000 0.200000 0
8.600000 0.200000 0
8.700000 0.200000 0
8.800000 0.200000 0
8.900000 0.200000 0
9.000000 0.200000 0
9.100000 0.200000 0
9.200000 0.200000 0
9.300000 0.200000 0
9.400000 0.200000 0
9.500000 0.200000 0
9.600000 0.200000 0
9.700000 0.200000 0
9.800000 0.200000 0
9.900000 0.200000 0
10.000000 0.200000 0
0.000000 0.300000 0
0.100000 0.300000 0
0.200000 0.300000 0
0.300000 0.300000 0
0.400000 0.300000 0
0.500000 0.300000 0
0.600000 0.300000 0
0.700000 0.300000 0
0.800000 0.300000 0
0.900000 0.300000 0
1.000000 0.300000 0
1.100000 0.300000 0
1.200000 0.300000 0
1.300000 0.300000 0
1.400000 0.300000 0
1.500000 0.300000 0
1.600000 0.300000 0
1.700000 0.300000 0
1.800000 0.300000 0
1.900000 0.300000 0
2.000000 0.300000 0
2.100000 0.300000 0
2.200000 0.300000 0
2.300000 0.300000 0
2.400000 0.300000 0
2.500000 0.300000 0
2.600000 0.300000 0
2.700000 0.300000 0
2.800000 0.300000 0
2.900000 0.300000 0
3.000000 0.300000 0
3.100000 0.300000 0
3.200000 0.300000 0
3.300000 0.300000 0
3.400000 0.300000 0
3.500000 0.300000 0
3.600000 0.300000 0
3.700000 0.300000 0
3.800000 0.300000 0
3.900000 0.300000 0
4.000000 0.300000 0
4.100000 0.300000 0
4.200000 0.300000 0
4.300000 0.300000 0
4.400000 0.300000 0
4.500000 0.300000 0
4.600000 0.300000 0
4.700000 0.300000 0
4.800000 0.300000 0
4.900000 0.300000 0
5.000000 0.300000 0
5.100000 0.300000 0
5.200000 0.300000 0
5.300000 0.300000 0
5.400000 0.300000 0
5.500000 0.300000 0
5.600000 0.300000 0
5.700000 0.300000 0
5.800000 0.300000 0
5.900000 0.300000 0
6.000000 0.300000 0
6.100000 0.300000 0
6.200000 0.300000 0
6.300000 0.300000 0
6.400000 0.300000 0
6.500000 0.300000 0
6.600000 0.300000 0
6.700000 0.300000 0
6.800000 0.300000 0
6.900000 0.300000 0
7.000000 0.300000 0
7.100000 0.300000 0
7.200000 0.300000 0
7.300000 0.300000 0
7.400000 0.300000 0
7.500000 0.300000 0
7.600000 0.300000 0
7.700000 0.300000 0
7.800000 0.300000 0
7.900000 0.300000 0
8.000000 0.300000 0
8.100000 0.300000 0
8.200000 0.300000 0
8.300000 0.300000 0
8.400000 0.300000 0
8.500000 0.300000 0
8.600000 0.300000 0
8.700000 0.300000 0
8.800000 0.300000 0
8.900000 0.300000 0
9.000000 0.300000 0
9.100000 0.300000 0
9.200000 0.300000 0
9.300000 0.300000 0
9.400000 0.300000 0
9.500000 0.300000 0
9.600000 0.300000 0
9.700000 0.300000 0
9.800000 0.300000 0
9.900000 0.300000 0
10.000000 0.300000 0
0.000000 0.400000 0
0.100000 0.400000 0
0.200000 0.400000 0
0.300000 0.400000 0
0.400000 0.400000 0
0.500000 0.400000 0
0.600000 0.400000 0
0.700000 0.400000 0
0.800000 0.400000 0
0.900000 0.400000 0
1.000000 0.400000 0
1.100000 0.400000 0
1.200000 0.400000 0
1.300000 0.400000 0
1.400000 0.400000 0
1.500000 0.400000 0
1.600000 0.400000 0
1.700000 0.400000 0
1.800000 0.400000 0
1.900000 0.400000 0
2.000000 0.400000 0
2.100000 0.400000 0
2.200000 0.400000 0
2.300000 0.400000 0
2.400000 0.400000 0
2.500000 0.400000 0
2.600000 0.400000 0
2.700000 0.400000 0
2.800000 0.400000 0
2.900000 0.400000 0
3.000000 0.400000 0
3.100000 0.400000 0
3.200000 0.400000 0
3.300000 0.400000 0
3.400000 0.400000 0
3.500000 0.400000 0
3.600000 0.400000 0
3.700000 0.400000 0
3.800000 0.400000 0
3.900000 0.400000 0
4.000000 0.400000 0
4.100000 0.400000 0
4.200000 0.400000 0
4.300000 0.400000 0
4.400000 0.400000 0
4.500000 0.400000 0
4.600000 0.400000 0
4.700000 0.400000 0
4.800000 0.400000 0
4.900000 0.400000 0
5.000000 0.400000 0
5.100000 0.400000 0
5.200000 0.400000 0
5.300000 0.400000 0
5.400000 0.400000 0
5.500000 0.400000 0
5.600000 0.400000 0
5.700000 0.400000 0
5.800000 0.400000 0
5.900000 0.400000 0
6.000000 0.400000 0
6.100000 0.400000 0
6.200000 0.400000 0
6.300000 0.400000 0
6.400000 0.400000 0
6.500000 0.400000 0
6.600000 0.400000 0
6.700000 0.400000 0
6.800000 0.400000 0
6.900000 0.400000 0
7.000000 0.400000 0
7.100000 0.400000 0
7.200000 0.400000 0
7.300000 0.400000 0
7.400000 0.400000 0
7.500000 0.400000 0
7.600000 0.400000 0
7.700000 0.400000 0
7.800000 0.400000 0
7.900000 0.400000 0
8.000000 0.400000 0
8.100000 0.400000 0
8.200000 0.400000 0
8.300000 0.400000 0
8.400000 0.400000 0
8.500000 0.400000 0
8.600000 0.400000 0
[...]
POINT_DATA 2121 

VECTORS velocity float
0.500000 0.000000 0
0.000009 0.000000 0
-0.000376 0.000000 0
0.001871 0.000000 0
0.004114 0.000000 0
0.005882 0.000000 0
0.007419 0.000000 0
0.008764 0.000000 0
0.009858 0.000000 0
0.010608 0.000000 0
0.010973 0.000000 0
0.010982 0.000000 0
0.010710 0.000000 0
0.010255 0.000000 0
0.009708 0.000000 0
0.009153 0.000000 0
0.008649 0.000000 0
0.008233 0.000000 0
0.007919 0.000000 0
0.007704 0.000000 0
0.007578 0.000000 0
0.007525 0.000000 0
0.007531 0.000000 0
0.007581 0.000000 0
0.007663 0.000000 0
0.007766 0.000000 0
0.007884 0.000000 0
0.008010 0.000000 0
0.008141 0.000000 0
0.008272 0.000000 0
0.008403 0.000000 0
0.008530 0.000000 0
0.008654 0.000000 0
0.008773 0.000000 0
0.008886 0.000000 0
0.008994 0.000000 0
0.009096 0.000000 0
0.009193 0.000000 0
0.009283 0.000000 0
0.009367 0.000000 0
0.009446 0.000000 0
0.009518 0.000000 0
0.009584 0.000000 0
0.009645 0.000000 0
0.009699 0.000000 0
0.009748 0.000000 0
0.009790 0.000000 0
0.009827 0.000000 0
0.009858 0.000000 0
0.009883 0.000000 0
0.009903 0.000000 0
0.009916 0.000000 0
0.009925 0.000000 0
0.009927 0.000000 0
0.009924 0.000000 0
0.009915 0.000000 0
0.009901 0.000000 0
0.009882 0.000000 0
0.009857 0.000000 0
0.009827 0.000000 0
0.009791 0.000000 0
0.009750 0.000000 0
0.009705 0.000000 0
0.009654 0.000000 0
0.009598 0.000000 0
0.009537 0.000000 0
0.009472 0.000000 0
0.009402 0.000000 0
0.009327 0.000000 0
0.009248 0.000000 0
0.009165 0.000000 0
0.009077 0.000000 0
0.008985 0.000000 0
0.008889 0.000000 0
0.008789 0.000000 0
0.008686 0.000000 0
0.008579 0.000000 0
0.008468 0.000000 0
0.008354 0.000000 0
0.008237 0.000000 0
0.008117 0.000000 0
0.007994 0.000000 0
0.007868 0.000000 0
0.007739 0.000000 0
0.007608 0.000000 0
0.007475 0.000000 0
0.007340 0.000000 0
0.007203 0.000000 0
0.007064 0.000000 0
0.006923 0.000000 0
0.006781 0.000000 0
0.006638 0.000000 0
0.006494 0.000000 0
0.006349 0.000000 0
0.006204 0.000000 0
0.006058 0.000000 0
0.005913 0.000000 0
0.005768 0.000000 0
0.005626 0.000000 0
0.005489 0.000000 0
0.005322 0.000000 0
1.000000 0.001378 0
0.967682 -0.030584 0
0.975315 -0.045409 0
0.990217 -0.046884 0
1.005285 -0.044717 0
1.019866 -0.043018 0
1.033628 -0.040888 0
1.045066 -0.037147 0
1.051716 -0.031381 0
1.051039 -0.024165 0
1.041968 -0.016828 0
1.025328 -0.010728 0
1.003286 -0.006697 0
0.978439 -0.004897 0
0.953098 -0.004979 0
0.928905 -0.006356 0
0.906774 -0.008429 0
0.887030 -0.010722 0
0.869613 -0.012920 0
0.854246 -0.014856 0
0.840575 -0.016465 0
0.828239 -0.017749 0
0.816917 -0.018743 0
0.806341 -0.019495 0
0.796295 -0.020057 0
0.786617 -0.020471 0
0.777182 -0.020775 0
0.767900 -0.020999 0
0.758706 -0.021166 0
0.749552 -0.021293 0
0.740408 -0.021393 0
0.731251 -0.021475 0
0.722067 -0.021545 0
0.712846 -0.021609 0
0.703584 -0.021669 0
0.694276 -0.021728 0
0.684922 -0.021787 0
0.675520 -0.021847 0
0.666073 -0.021908 0
0.656580 -0.021972 0
0.647043 -0.022037 0
0.637462 -0.022104 0
0.627840 -0.022173 0
0.618178 -0.022244 0
0.608475 -0.022316 0
0.598735 -0.022389 0
0.588957 -0.022464 0
0.579143 -0.022539 0
0.569293 -0.022615 0
0.559408 -0.022692 0
0.549489 -0.022769 0
0.539537 -0.022847 0
0.529553 -0.022924 0
0.519536 -0.023002 0
0.509487 -0.023079 0
0.499407 -0.023156 0
0.489297 -0.023233 0
0.479157 -0.023309 0
0.468987 -0.023385 0
0.458789 -0.023460 0
0.448561 -0.023534 0
0.438306 -0.023608 0
0.428023 -0.023680 0
0.417713 -0.023752 0
0.407377 -0.023822 0
0.397015 -0.023891 0
0.386628 -0.023959 0
0.376215 -0.024026 0
0.365779 -0.024091 0
0.355319 -0.024155 0
0.344836 -0.024218 0
0.334331 -0.024278 0
0.323804 -0.024338 0
0.313256 -0.024395 0
0.302688 -0.024451 0
0.292101 -0.024505 0
0.281494 -0.024558 0
0.270869 -0.024608 0
0.260227 -0.024657 0
0.249569 -0.024704 0
0.238894 -0.024749 0
0.228204 -0.024792 0
0.217500 -0.024832 0
0.206783 -0.024871 0
0.196053 -0.024908 0
0.185311 -0.024942 0
0.174558 -0.024975 0
0.163795 -0.025005 0
0.153022 -0.025033 0
0.142242 -0.025059 0
0.131453 -0.025083 0
0.120659 -0.025105 0
0.109858 -0.025124 0
0.099052 -0.025141 0
0.088243 -0.025156 0
0.077431 -0.025169 0
0.066617 -0.025181 0
0.055804 -0.025193 0
0.044992 -0.025208 0
0.034186 -0.025162 0
0.023315 -0.024914 0
1.000000 0.002024 0
0.969639 -0.033241 0
0.971258 -0.059091 0
0.980672 -0.066556 0
0.993431 -0.066269 0
1.008173 -0.065001 0
1.024023 -0.061903 0
1.038942 -0.054841 0
1.049158 -0.042778 0
1.050062 -0.027113 0
1.039986 -0.011212 0
1.020501 0.001695 0
0.995011 0.009834 0
0.967136 0.013061 0
0.939725 0.012334 0
0.914502 0.009047 0
0.892187 0.004515 0
0.872822 -0.000282 0
0.856083 -0.004746 0
0.841504 -0.008583 0
0.828613 -0.011708 0
0.816990 -0.014154 0
0.806291 -0.016013 0
0.796247 -0.017392 0
0.786653 -0.018396 0
0.777359 -0.019114 0
0.768253 -0.019621 0
0.759258 -0.019975 0
0.750319 -0.020219 0
0.741397 -0.020388 0
0.732466 -0.020504 0
0.723509 -0.020586 0
0.714515 -0.020646 0
0.705476 -0.020694 0
0.696390 -0.020734 0
0.687253 -0.020771 0
0.678067 -0.020808 0
0.668830 -0.020846 0
0.659544 -0.020887 0
0.650210 -0.020931 0
0.640830 -0.020979 0
0.631404 -0.021029 0
0.621933 -0.021083 0
0.612420 -0.021139 0
0.602866 -0.021198 0
0.593270 -0.021260 0
0.583636 -0.021323 0
0.573962 -0.021389 0
0.564251 -0.021456 0
0.554502 -0.021524 0
0.544718 -0.021593 0
0.534898 -0.021663 0
0.525042 -0.021733 0
0.515153 -0.021804 0
0.505230 -0.021875 0
0.495273 -0.021946 0
0.485284 -0.022017 0
0.475263 -0.022088 0
0.465210 -0.022158 0
0.455126 -0.022228 0
0.445011 -0.022298 0
0.434867 -0.022366 0
0.424693 -0.022434 0
0.414491 -0.022501 0
0.404260 -0.022567 0
0.394002 -0.022633 0
0.383717 -0.022696 0
0.373405 -0.022759 0
0.363068 -0.022821 0
0.352705 -0.022881 0
0.342318 -0.022940 0
0.331908 -0.022997 0
0.321474 -0.023053 0
0.311018 -0.023108 0
0.300541 -0.023160 0
0.290043 -0.023212 0
0.279524 -0.023261 0
0.268987 -0.023309 0
0.258431 -0.023355 0
0.247857 -0.023399 0
0.237267 -0.023441 0
0.226661 -0.023482 0
0.216039 -0.023520 0
0.205404 -0.023557 0
0.194755 -0.023592 0
0.184093 -0.023624 0
0.173420 -0.023655 0
0.162736 -0.023684 0
0.152042 -0.023710 0
0.141339 -0.023735 0
0.130629 -0.023757 0
0.119911 -0.023777 0
0.109187 -0.023796 0
0.098458 -0.023812 0
0.087724 -0.023826 0
0.076988 -0.023839 0
0.066249 -0.023850 0
0.055508 -0.023862 0
0.044765 -0.023874 0
0.034019 -0.023816 0
0.023262 -0.023572 0
1.000000 0.002542 0
0.972623 -0.038380 0
0.974074 -0.071595 0
0.981338 -0.084226 0
0.992840 -0.087403 0
1.008626 -0.088815 0
1.028605 -0.086884 0
1.050777 -0.077533 0
1.069143 -0.057777 0
1.073221 -0.030295 0
1.060404 -0.002599 0
1.034445 0.018886 0
1.001578 0.031277 0
0.967470 0.034966 0
0.935887 0.032199 0
0.908540 0.025692 0
0.885646 0.017726 0
0.866655 0.009822 0
0.850756 0.002799 0
0.837163 -0.003024 0
0.825217 -0.007630 0
0.814415 -0.011148 0
0.804386 -0.013764 0
0.794866 -0.015666 0
0.785670 -0.017022 0
0.776670 -0.017971 0
0.767779 -0.018622 0
0.758936 -0.019061 0
0.750104 -0.019350 0
0.741255 -0.019535 0
0.732373 -0.019651 0
0.723447 -0.019720 0
0.714472 -0.019762 0
0.705444 -0.019786 0
0.696362 -0.019802 0
0.687227 -0.019815 0
0.678039 -0.019828 0
0.668800 -0.019844 0
0.659510 -0.019864 0
0.650173 -0.019888 0
0.640788 -0.019917 0
0.631358 -0.019951 0
0.621884 -0.019990 0
0.612368 -0.020032 0
0.602810 -0.020079 0
0.593212 -0.020128 0
0.583575 -0.020181 0
0.573900 -0.020237 0
0.564187 -0.020294 0
0.554437 -0.020354 0
0.544651 -0.020415 0
0.534830 -0.020478 0
0.524974 -0.020541 0
0.515084 -0.020606 0
0.505161 -0.020670 0
0.495204 -0.020736 0
0.485215 -0.020801 0
0.475194 -0.020866 0
0.465142 -0.020932 0
0.455058 -0.020997 0
0.444944 -0.021061 0
0.434801 -0.021125 0
0.424628 -0.021189 0
0.414426 -0.021251 0
0.404197 -0.021313 0
0.393939 -0.021374 0
0.383655 -0.021434 0
0.373345 -0.021493 0
0.363008 -0.021551 0
0.352647 -0.021607 0
0.342262 -0.021662 0
0.331853 -0.021716 0
0.321420 -0.021769 0
0.310966 -0.021820 0
0.300490 -0.021870 0
0.289994 -0.021918 0
0.279477 -0.021965 0
0.268941 -0.022010 0
0.258387 -0.022053 0
0.247815 -0.022095 0
0.237227 -0.022134 0
0.226622 -0.022173 0
0.216003 -0.022209 0
0.205369 -0.022243 0
0.194722 -0.022276 0
0.184062 -0.022307 0
0.173391 -0.022336 0
0.162709 -0.022363 0
0.152017 -0.022387 0
0.141317 -0.022410 0
0.130608 -0.022432 0
0.119892 -0.022451 0
0.109170 -0.022468 0
0.098443 -0.022483 0
0.087711 -0.022496 0
0.076976 -0.022508 0
0.066238 -0.022519 0
0.055498 -0.022528 0
0.044755 -0.022536 0
0.034008 -0.022475 0
0.023263 -0.022241 0
1.000000 0.002972 0
0.973057 -0.043861 0
0.973179 -0.082960 0
0.978034 -0.100492 0
0.987950 -0.108745 0
1.004869 -0.115974 0
1.030979 -0.119283 0
1.066401 -0.110631 0
1.103399 -0.080501 0
1.113245 -0.033682 0
1.093973 0.012229 0
1.055290 0.045156 0
1.009377 0.061413 0
0.965265 0.063325 0
0.927800 0.055805 0
0.898105 0.043796 0
0.875186 0.030873 0
0.857377 0.019044 0
0.843107 0.009144 0
0.831155 0.001315 0
0.820659 -0.004642 0
0.811046 -0.009046 0
0.801950 -0.012230 0
0.793139 -0.014486 0
0.784468 -0.016055 0
0.775849 -0.017125 0
0.767231 -0.017837 0
0.758580 -0.018298 0
0.749880 -0.018584 0
0.741120 -0.018753 0
0.732297 -0.018843 0
0.723408 -0.018884 0
0.714455 -0.018894 0
0.705438 -0.018888 0
0.696362 -0.018874 0
0.687227 -0.018859 0
0.678036 -0.018846 0
0.668792 -0.018838 0
0.659497 -0.018836 0
0.650154 -0.018841 0
0.640764 -0.018852 0
0.631328 -0.018869 0
0.621849 -0.018893 0
0.612328 -0.018922 0
0.602767 -0.018956 0
0.593165 -0.018994 0
0.583525 -0.019037 0
0.573846 -0.019083 0
0.564131 -0.019131 0
0.554379 -0.019183 0
0.544592 -0.019236 0
0.534770 -0.019292 0
0.524913 -0.019348 0
0.515022 -0.019406 0
0.505098 -0.019465 0
0.495141 -0.019524 0
0.485152 -0.019584 0
0.475131 -0.019644 0
0.465078 -0.019705 0
0.454995 -0.019765 0
0.444882 -0.019824 0
0.434739 -0.019884 0
0.424566 -0.019943 0
0.414366 -0.020001 0
0.404137 -0.020059 0
0.393880 -0.020116 0
0.383597 -0.020172 0
0.373288 -0.020227 0
0.362953 -0.020281 0
0.352593 -0.020334 0
0.342209 -0.020385 0
0.331801 -0.020436 0
0.321370 -0.020485 0
0.310917 -0.020533 0
0.300443 -0.020580 0
0.289948 -0.020625 0
0.279432 -0.020669 0
0.268898 -0.020711 0
0.258346 -0.020752 0
0.247776 -0.020791 0
0.237189 -0.020828 0
0.226586 -0.020864 0
0.215968 -0.020898 0
0.205336 -0.020930 0
0.194691 -0.020961 0
0.184033 -0.020990 0
0.173364 -0.021017 0
0.162684 -0.021042 0
0.151994 -0.021065 0
0.141295 -0.021087 0
0.130589 -0.021107 0
0.119875 -0.021124 0
0.109155 -0.021140 0
0.098429 -0.021155 0
0.087699 -0.021167 0
0.076966 -0.021178 0
0.066229 -0.021187 0
0.055490 -0.021194 0
0.044749 -0.021199 0
0.034005 -0.021137 0
0.023268 -0.020917 0
1.000000 0.003241 0
0.972298 -0.048110 0
0.969264 -0.091729 0
0.969876 -0.114168 0
0.976049 -0.129426 0
0.991913 -0.147052 0
1.024029 -0.163645 0
1.080437 -0.165207 0
1.164259 -0.119901 0
1.182078 -0.036180 0
1.146791 0.040015 0
1.083320 0.088112 0
1.015359 0.105902 0
0.956399 0.101113 0
0.911924 0.083897 0
0.880880 0.062811 0
0.859599 0.042924 0
0.844543 0.026335 0
0.833123 0.013418 0
0.823671 0.003781 0
0.815195 -0.003205 0
0.807141 -0.008165 0
0.799209 -0.011624 0
0.791248 -0.013995 0
0.783190 -0.015590 0
0.775006 -0.016637 0
0.766691 -0.017304 0
0.758250 -0.017709 0
0.749691 -0.017938 0
0.741025 -0.018050 0
0.732261 -0.018087 0
0.723408 -0.018078 0
0.714474 -0.018044 0
0.705467 -0.017998 0
0.696392 -0.017949 0
0.687255 -0.017902 0
0.678058 -0.017860 0
0.668808 -0.017827 0
0.659505 -0.017802 0
0.650154 -0.017787 0
0.640756 -0.017780 0
0.631314 -0.017781 0
0.621829 -0.017790 0
0.612302 -0.017806 0
0.602735 -0.017828 0
0.593128 -0.017856 0
0.583484 -0.017889 0
0.573802 -0.017925 0
0.564084 -0.017966 0
0.554330 -0.018009 0
0.544540 -0.018056 0
0.534716 -0.018104 0
0.524858 -0.018154 0
0.514966 -0.018206 0
0.505041 -0.018259 0
0.495083 -0.018313 0
0.485094 -0.018367 0
0.475072 -0.018422 0
0.465020 -0.018477 0
0.454937 -0.018532 0
0.444824 -0.018588 0
0.434681 -0.018642 0
0.424510 -0.018697 0
0.414309 -0.018751 0
0.404081 -0.018805 0
0.393826 -0.018858 0
0.383543 -0.018910 0
0.373235 -0.018961 0
0.362901 -0.019011 0
0.352542 -0.019061 0
0.342159 -0.019109 0
0.331752 -0.019156 0
0.321323 -0.019202 0
0.310871 -0.019247 0
0.300398 -0.019290 0
0.289904 -0.019333 0
0.279391 -0.019373 0
0.268858 -0.019413 0
0.258307 -0.019451 0
0.247739 -0.019487 0
0.237153 -0.019522 0
0.226552 -0.019556 0
0.215936 -0.019588 0
0.205306 -0.019618 0
0.194662 -0.019646 0
0.184006 -0.019673 0
0.173339 -0.019699 0
0.162660 -0.019722 0
0.151972 -0.019744 0
0.141275 -0.019764 0
0.130570 -0.019782 0
0.119858 -0.019799 0
0.109140 -0.019814 0
0.098417 -0.019827 0
0.087689 -0.019838 0
0.076957 -0.019847 0
0.066222 -0.019855 0
0.055485 -0.019860 0
0.044746 -0.019863 0
0.034006 -0.019804 0
0.023274 -0.019597 0
1.000000 0.003274 0
0.970737 -0.049681 0
0.962634 -0.095696 0
0.956260 -0.122448 0
0.954449 -0.145969 0
0.962693 -0.179161 0
0.992780 -0.223036 0
1.069036 -0.266114 0
1.261829 -0.197425 0
1.297818 -0.031529 0
1.226099 0.095639 0
1.115301 0.161211 0
1.012326 0.172930 0
0.933031 0.151326 0
0.882605 0.115858 0
0.853875 0.080623 0
0.837770 0.051677 0
0.828056 0.029952 0
0.821149 0.014411 0
0.815187 0.003598 0
0.809291 -0.003797 0
0.803092 -0.008786 0
0.796474 -0.012107 0
0.789434 -0.014281 0
0.782014 -0.015672 0
0.774270 -0.016531 0
0.766254 -0.017033 0
0.758013 -0.017298 0
0.749585 -0.017409 0
0.741002 -0.017422 0
0.732288 -0.017377 0
0.723463 -0.017299 0
0.714542 -0.017207 0
0.705538 -0.017112 0
0.696459 -0.017021 0
0.687314 -0.016939 0
0.678108 -0.016867 0
0.668847 -0.016807 0
0.659534 -0.016760 0
0.650173 -0.016724 0
0.640766 -0.016700 0
0.631314 -0.016686 0
0.621821 -0.016681 0
0.612287 -0.016685 0
0.602714 -0.016696 0
0.593102 -0.016713 0
0.583453 -0.016737 0
0.573767 -0.016765 0
0.564045 -0.016797 0
0.554287 -0.016833 0
0.544495 -0.016873 0
0.534669 -0.016914 0
0.524809 -0.016958 0
0.514916 -0.017004 0
0.504990 -0.017051 0
0.495031 -0.017100 0
0.485041 -0.017149 0
0.475019 -0.017199 0
0.464967 -0.017249 0
0.454884 -0.017300 0
0.444771 -0.017350 0
0.434628 -0.017401 0
0.424457 -0.017451 0
0.414257 -0.017501 0
0.404030 -0.017551 0
0.393775 -0.017599 0
0.383493 -0.017648 0
0.373186 -0.017695 0
0.362852 -0.017742 0
0.352495 -0.017788 0
0.342113 -0.017833 0
0.331707 -0.017876 0
0.321279 -0.017919 0
0.310828 -0.017961 0
0.300357 -0.018001 0
0.289864 -0.018040 0
0.279352 -0.018078 0
0.268821 -0.018115 0
0.258271 -0.018150 0
0.247704 -0.018184 0
0.237120 -0.018217 0
0.226521 -0.018248 0
0.215906 -0.018278 0
0.205277 -0.018306 0
0.194635 -0.018332 0
0.183981 -0.018358 0
0.173315 -0.018381 0
0.162639 -0.018403 0
0.151952 -0.018423 0
0.141257 -0.018442 0
0.130554 -0.018459 0
0.119843 -0.018474 0
0.109127 -0.018487 0
0.098405 -0.018499 0
0.087679 -0.018509 0
0.076949 -0.018517 0
0.066216 -0.018524 0
0.055481 -0.018528 0
0.044745 -0.018530 0
0.034008 -0.018473 0
0.023280 -0.018280 0
1.000000 0.003016 0
0.968677 -0.047304 0
0.954075 -0.092410 0
0.938047 -0.121156 0
0.922785 -0.151047 0
0.911623 -0.200588 0
0.915061 -0.285214 0
0.966102 -0.449508 0
1.223061 -0.363967 0
1.351555 -0.015772 0
1.362155 0.207175 0
1.189550 0.286501 0
0.996785 0.272761 0
0.880783 0.215397 0
0.831573 0.147586 0
0.814231 0.092145 0
0.809531 0.053209 0
0.808745 0.027386 0
0.808212 0.010679 0
0.806621 -0.000007 0
0.803670 -0.006797 0
0.799441 -0.011076 0
0.794139 -0.013737 0
0.787977 -0.015351 0
0.781141 -0.016286 0
0.773782 -0.016783 0
0.766018 -0.017000 0
0.757938 -0.017042 0
0.749610 -0.016978 0
0.741084 -0.016853 0
0.732401 -0.016699 0
0.723588 -0.016535 0
0.714667 -0.016373 0
0.705656 -0.016222 0
0.696566 -0.016085 0
0.687407 -0.015965 0
0.678187 -0.015862 0
0.668911 -0.015776 0
0.659585 -0.015706 0
0.650210 -0.015651 0
0.640791 -0.015610 0
0.631329 -0.015582 0
0.621826 -0.015564 0
0.612284 -0.015556 0
0.602703 -0.015557 0
0.593085 -0.015565 0
0.583430 -0.015579 0
0.573739 -0.015600 0
0.564013 -0.015625 0
0.554252 -0.015654 0
0.544457 -0.015687 0
0.534628 -0.015722 0
0.524766 -0.015761 0
0.514871 -0.015801 0
0.504944 -0.015843 0
0.494984 -0.015886 0
0.484993 -0.015930 0
0.474971 -0.015975 0
0.464918 -0.016021 0
0.454835 -0.016067 0
0.444722 -0.016113 0
0.434579 -0.016159 0
0.424408 -0.016205 0
0.414209 -0.016251 0
0.403982 -0.016296 0
0.393728 -0.016341 0
0.383447 -0.016386 0
0.373140 -0.016430 0
0.362808 -0.016473 0
0.352451 -0.016515 0
0.342070 -0.016556 0
0.331665 -0.016597 0
0.321238 -0.016636 0
0.310789 -0.016675 0
0.300318 -0.016712 0
0.289827 -0.016749 0
0.279316 -0.016784 0
0.268786 -0.016818 0
0.258238 -0.016851 0
0.247672 -0.016882 0
0.237090 -0.016912 0
0.226491 -0.016941 0
0.215878 -0.016968 0
0.205251 -0.016994 0
0.194611 -0.017019 0
0.183958 -0.017042 0
0.173293 -0.017064 0
0.162618 -0.017084 0
0.151934 -0.017103 0
0.141240 -0.017120 0
0.130538 -0.017135 0
0.119830 -0.017149 0
0.109115 -0.017162 0
0.098395 -0.017172 0
0.087670 -0.017181 0
0.076942 -0.017189 0
0.066211 -0.017194 0
0.055479 -0.017197 0
0.044745 -0.017198 0
0.034011 -0.017144 0
0.023287 -0.016966 0
1.000000 0.002457 0
0.966608 -0.040320 0
0.945384 -0.080224 0
0.918879 -0.106330 0
0.887013 -0.134732 0
0.845955 -0.186640 0
0.788409 -0.292737 0
0.700338 -0.589358 0
0.530115 -0.598153 0
-0.061510 -0.185957 0
0.725519 0.242266 0
0.864003 0.511187 0
0.798701 0.466281 0
0.753327 0.301097 0
0.748662 0.166942 0
0.761931 0.087165 0
0.777362 0.041629 0
0.789161 0.015700 0
0.796314 0.000926 0
0.799397 -0.007508 0
0.799305 -0.012305 0
0.796843 -0.014985 0
0.792642 -0.016415 0
0.787171 -0.017100 0
0.780768 -0.017339 0
0.773677 -0.017316 0
0.766075 -0.017144 0
0.758087 -0.016893 0
0.749807 -0.016607 0
0.741301 -0.016315 0
0.732618 -0.016032 0
0.723795 -0.015769 0
0.714857 -0.015530 0
0.705826 -0.015318 0
0.696714 -0.015133 0
0.687534 -0.014975 0
0.678294 -0.014840 0
0.668999 -0.014729 0
0.659655 -0.014638 0
0.650265 -0.014565 0
0.640832 -0.014508 0
0.631357 -0.014466 0
0.621843 -0.014437 0
0.612291 -0.014419 0
0.602702 -0.014410 0
0.593076 -0.014410 0
0.583415 -0.014417 0
0.573719 -0.014430 0
0.563988 -0.014448 0
0.554223 -0.014471 0
0.544425 -0.014498 0
0.534593 -0.014528 0
0.524729 -0.014561 0
0.514832 -0.014596 0
0.504903 -0.014632 0
0.494942 -0.014671 0
0.484950 -0.014710 0
0.474927 -0.014751 0
0.464874 -0.014792 0
0.454790 -0.014833 0
0.444677 -0.014875 0
0.434535 -0.014917 0
0.424364 -0.014959 0
0.414165 -0.015001 0
0.403938 -0.015042 0
0.393685 -0.015083 0
0.383404 -0.015124 0
0.373098 -0.015164 0
0.362767 -0.015204 0
0.352410 -0.015243 0
0.342030 -0.015281 0
0.331627 -0.015318 0
0.321200 -0.015354 0
0.310752 -0.015390 0
0.300282 -0.015424 0
0.289792 -0.015457 0
0.279283 -0.015490 0
0.268754 -0.015521 0
0.258207 -0.015551 0
0.247642 -0.015580 0
0.237061 -0.015608 0
0.226464 -0.015634 0
0.215853 -0.015659 0
0.205227 -0.015683 0
0.194588 -0.015706 0
0.183936 -0.015727 0
0.173273 -0.015747 0
0.162600 -0.015766 0
0.151916 -0.015783 0
0.141224 -0.015799 0
0.130524 -0.015813 0
0.119817 -0.015826 0
0.109104 -0.015837 0
0.098385 -0.015846 0
0.087663 -0.015854 0
0.076936 -0.015861 0
0.066207 -0.015865 0
0.055477 -0.015867 0
0.044746 -0.015868 0
0.034015 -0.015817 0
0.023293 -0.015654 0
1.000000 0.001644 0
0.965143 -0.029254 0
0.939044 -0.059840 0
0.904732 -0.077956 0
0.860427 -0.093308 0
0.796766 -0.117184 0
0.692613 -0.154812 0
0.496428 -0.206443 0
-0.007814 0.003324 0
-0.767947 0.100170 0
0.000000 -0.031077 0
0.240214 0.194590 0
0.457831 0.368019 0
0.563571 0.249995 0
0.646029 0.123513 0
0.707543 0.047944 0
0.748843 0.010444 0
0.774204 -0.007138 0
0.788464 -0.015167 0
0.795328 -0.018647 0
0.797289 -0.019932 0
0.795962 -0.020145 0
0.792395 -0.019840 0
0.787275 -0.019294 0
0.781060 -0.018655 0
0.774061 -0.017999 0
0.766492 -0.017366 0
0.758505 -0.016778 0
0.750205 -0.016244 0
0.741669 -0.015767 0
0.732950 -0.015346 0
0.724090 -0.014978 0
0.715116 -0.014660 0
0.706049 -0.014388 0
0.696905 -0.014156 0
0.687695 -0.013960 0
0.678428 -0.013797 0
0.669110 -0.013661 0
0.659744 -0.013551 0
0.650335 -0.013462 0
0.640886 -0.013392 0
0.631397 -0.013339 0
0.621870 -0.013299 0
0.612307 -0.013272 0
0.602709 -0.013255 0
0.593075 -0.013248 0
0.583407 -0.013248 0
0.573705 -0.013255 0
0.563969 -0.013267 0