# vtk DataFile Version 2.0
generated by CFD-lab course output (written by Tobias Neckel) 
ASCII

DATASET STRUCTURED_GRID
DIMENSIONS  101 21 1 
POINTS 2121 float

0.000000 0.000000 0
0.100000 0.000000 0
0.200000 0.000000 0
0.300000 0.000000 0
0.400000 0.000000 0
0.500000 0.000000 0
0.600000 0.000000 0
0.700000 0.000000 0
0.800000 0.000000 0
0.900000 0.000000 0
1.000000 0.000000 0
1.100000 0.000000 0
1.200000 0.000000 0
1.300000 0.000000 0
1.400000 0.000000 0
1.500000 0.000000 0
1.600000 0.000000 0
1.700000 0.000000 0
1.800000 0.000000 0
1.900000 0.000000 0
2.000000 0.000000 0
2.100000 0.000000 0
2.200000 0.000000 0
2.300000 0.000000 0
2.400000 0.000000 0
2.500000 0.000000 0
2.600000 0.000000 0
2.700000 0.000000 0
2.800000 0.000000 0
2.900000 0.000000 0
3.000000 0.000000 0
3.100000 0.000000 0
3.200000 0.000000 0
3.300000 0.000000 0
3.400000 0.000000 0
3.500000 0.000000 0
3.600000 0.000000 0
3.700000 0.000000 0
3.800000 0.000000 0
3.900000 0.000000 0
4.000000 0.000000 0
4.100000 0.000000 0
4.200000 0.000000 0
4.300000 0.000000 0
4.400000 0.000000 0
4.500000 0.000000 0
4.600000 0.000000 0
4.700000 0.000000 0
4.800000 0.000000 0
4.900000 0.000000 0
5.000000 0.000000 0
5.100000 0.000000 0
5.200000 0.000000 0
5.300000 0.000000 0
5.400000 0.000000 0
5.500000 0.000000 0
5.600000 0.000000 0
5.700000 0.000000 0
5.800000 0.000000 0
5.900000 0.000000 0
6.000000 0.000000 0
6.100000 0.000000 0
6.200000 0.000000 0
6.300000 0.000000 0
6.400000 0.000000 0
6.500000 0.000000 0
6.600000 0.000000 0
6.700000 0.000000 0
6.800000 0.000000 0
6.900000 0.000000 0
7.000000 0.000000 0
7.100000 0.000000 0
7.200000 0.000000 0
7.300000 0.000000 0
7.400000 0.000000 0
7.500000 0.000000 0
7.600000 0.000000 0
7.700000 0.000000 0
7.800000 0.000000 0
7.900000 0.000000 0
8.000000 0.000000 0
8.100000 0.000000 0
8.200000 0.000000 0
8.300000 0.000000 0
8.400000 0.000000 0
8.500000 0.000000 0
8.600000 0.000000 0
8.700000 0.000000 0
8.800000 0.000000 0
8.900000 0.000000 0
9.000000 0.000000 0
9.100000 0.000000 0
9.200000 0.000000 0
9.300000 0.000000 0
9.400000 0.000000 0
9.500000 0.000000 0
9.600000 0.000000 0
9.700000 0.000000 0
9.800000 0.000000 0
9.900000 0.000000 0
10.000000 0.000000 0
0.000000 0.100000 0
0.100000 0.100000 0
0.200000 0.100000 0
0.300000 0.100000 0
0.400000 0.100000 0
0.500000 0.100000 0
0.600000 0.100000 0
0.700000 0.100000 0
0.800000 0.100000 0
0.900000 0.100000 0
1.000000 0.100000 0
1.100000 0.100000 0
1.200000 0.100000 0
1.300000 0.100000 0
1.400000 0.100000 0
1.500000 0.100000 0
1.600000 0.100000 0
1.700000 0.100000 0
1.800000 0.100000 0
1.900000 0.100000 0
2.000000 0.100000 0
2.100000 0.100000 0
2.200000 0.100000 0
2.300000 0.100000 0
2.400000 0.100000 0
2.500000 0.100000 0
2.600000 0.100000 0
2.700000 0.100000 0
2.800000 0.100000 0
2.900000 0.100000 0
3.000000 0.100000 0
3.100000 0.100000 0
3.200000 0.100000 0
3.300000 0.100000 0
3.400000 0.100000 0
3.500000 0.100000 0
3.600000 0.100000 0
3.700000 0.100000 0
3.800000 0.100000 0
3.900000 0.100000 0
4.000000 0.100000 0
4.100000 0.100000 0
4.200000 0.100000 0
4.300000 0.100000 0
4.400000 0.100000 0
4.500000 0.100000 0
4.600000 0.100000 0
4.700000 0.100000 0
4.800000 0.100000 0
4.900000 0.100000 0
5.000000 0.100000 0
5.100000 0.100000 0
5.200000 0.100000 0
5.300000 0.100000 0
5.400000 0.100000 0
5.500000 0.100000 0
5.600000 0.100000 0
5.700000 0.100000 0
5.800000 0.100000 0
5.900000 0.100000 0
6.000000 0.100000 0
6.100000 0.100000 0
6.200000 0.100000 0
6.300000 0.100000 0
6.400000 0.100000 0
6.500000 0.100000 0
6.600000 0.100000 0
6.700000 0.100000 0
6.800000 0.100000 0
6.900000 0.100000 0
7.000000 0.100000 0
7.100000 0.100000 0
7.200000 0.100000 0
7.300000 0.100000 0
7.400000 0.100000 0
7.500000 0.100000 0
7.600000 0.100000 0
7.700000 0.100000 0
7.800000 0.100000 0
7.900000 0.100000 0
8.000000 0.100000 0
8.100000 0.100000 0
8.200000 0.100000 0
8.300000 0.100000 0
8.400000 0.100000 0
8.500000 0.100000 0
8.600000 0.100000 0
8.700000 0.100000 0
8.800000 0.100000 0
8.900000 0.100000 0
9.000000 0.100000 0
9.100000 0.100000 0
9.200000 0.100000 0
9.300000 0.100000 0
9.400000 0.100000 0
9.500000 0.100000 0
9.600000 0.100000 0
9.700000 0.100000 0
9.800000 0.100000 0
9.900000 0.100000 0
10.000000 0.100000 0
0.000000 0.200000 0
0.100000 0.200000 0
0.200000 0.200000 0
0.300000 0.200000 0
0.400000 0.200000 0
0.500000 0.200000 0
0.600000 0.200000 0
0.700000 0.200000 0
0.800000 0.200000 0
0.900000 0.200000 0
1.000000 0.200000 0
1.100000 0.200000 0
1.200000 0.200000 0
1.300000 0.200000 0
1.400000 0.200000 0
1.500000 0.200000 0
1.600000 0.200000 0
1.700000 0.200000 0
1.800000 0.200000 0
1.900000 0.200000 0
2.000000 0.200000 0
2.100000 0.200000 0
2.200000 0.200000 0
2.300000 0.200000 0
2.400000 0.200000 0
2.500000 0.200000 0
2.600000 0.200000 0
2.700000 0.200000 0
2.800000 0.200000 0
2.900000 0.200000 0
3.000000 0.200000 0
3.100000 0.200000 0
3.200000 0.200000 0
3.300000 0.200000 0
3.400000 0.200000 0
3.500000 0.200000 0
3.600000 0.200000 0
3.700000 0.200000 0
3.800000 0.200000 0
3.900000 0.200000 0
4.000000 0.200000 0
4.100000 0.200000 0
4.200000 0.200000 0
4.300000 0.200000 0
4.400000 0.200000 0
4.500000 0.200000 0
4.600000 0.200000 0
4.700000 0.200000 0
4.800000 0.200000 0
4.900000 0.200000 0
5.000000 0.200000 0
5.100000 0.200000 0
5.200000 0.200000 0
5.300000 0.200000 0
5.400000 0.200000 0
5.500000 0.200000 0
5.600000 0.200000 0
5.700000 0.200000 0
5.800000 0.200000 0
5.900000 0.200000 0
6.000000 0.200000 0
6.100000 0.200000 0
6.200000 0.200000 0
6.300000 0.200000 0
6.400000 0.200000 0
6.500000 0.200000 0
6.600000 0.200000 0
6.700000 0.200000 0
6.800000 0.200000 0
6.900000 0.200000 0
7.000000 0.200000 0
7.100000 0.200000 0
7.200000 0.200000 0
7.300000 0.200000 0
7.400000 0.200000 0
7.500000 0.200000 0
7.600000 0.200000 0
7.700000 0.200000 0
7.800000 0.200000 0
7.900000 0.200000 0
8.000000 0.200000 0
8.100000 0.200000 0
8.200000 0.200000 0
8.300000 0.200000 0
8.400000 0.200000 0
8.500000 0.200000 0
8.600000 0.200000 0
8.700000 0.200000 0
8.800000 0.200000 0
8.900000 0.200000 0
9.000000 0.200000 0
9.100000 0.200000 0
9.200000 0.200000 0
9.300000 0.200000 0
9.400000 0.200000 0
9.500000 0.200000 0
9.600000 0.200000 0
9.700000 0.200000 0
9.800000 0.200000 0
9.900000 0.200000 0
10.000000 0.200000 0
0.000000 0.300000 0
0.100000 0.300000 0
0.200000 0.300000 0
0.300000 0.300000 0
0.400000 0.300000 0
0.500000 0.300000 0
0.600000 0.300000 0
0.700000 0.300000 0
0.800000 0.300000 0
0.900000 0.300000 0
1.000000 0.300000 0
1.100000 0.300000 0
1.200000 0.300000 0
1.300000 0.300000 0
1.400000 0.300000 0
1.500000 0.300000 0
1.600000 0.300000 0
1.700000 0.300000 0
1.800000 0.300000 0
1.900000 0.300000 0
2.000000 0.300000 0
2.100000 0.300000 0
2.200000 0.300000 0
2.300000 0.300000 0
2.400000 0.300000 0
2.500000 0.300000 0
2.600000 0.300000 0
2.700000 0.300000 0
2.800000 0.300000 0
2.900000 0.300000 0
3.000000 0.300000 0
3.100000 0.300000 0
3.200000 0.300000 0
3.300000 0.300000 0
3.400000 0.300000 0
3.500000 0.300000 0
3.600000 0.300000 0
3.700000 0.300000 0
3.800000 0.300000 0
3.900000 0.300000 0
4.000000 0.300000 0
4.100000 0.300000 0
4.200000 0.300000 0
4.300000 0.300000 0
4.400000 0.300000 0
4.500000 0.300000 0
4.600000 0.300000 0
4.700000 0.300000 0
4.800000 0.300000 0
4.900000 0.300000 0
5.000000 0.300000 0
5.100000 0.300000 0
5.200000 0.300000 0
5.300000 0.300000 0
5.400000 0.300000 0
5.500000 0.300000 0
5.600000 0.300000 0
5.700000 0.300000 0
5.800000 0.300000 0
5.900000 0.300000 0
6.000000 0.300000 0
6.100000 0.300000 0
6.200000 0.300000 0
6.300000 0.300000 0
6.400000 0.300000 0
6.500000 0.300000 0
6.600000 0.300000 0
6.700000 0.300000 0
6.800000 0.300000 0
6.900000 0.300000 0
7.000000 0.300000 0
7.100000 0.300000 0
7.200000 0.300000 0
7.300000 0.300000 0
7.400000 0.300000 0
7.500000 0.300000 0
7.600000 0.300000 0
7.700000 0.300000 0
7.800000 0.300000 0
7.900000 0.300000 0
8.000000 0.300000 0
8.100000 0.300000 0
8.200000 0.300000 0
8.300000 0.300000 0
8.400000 0.300000 0
8.500000 0.300000 0
8.600000 0.300000 0
8.700000 0.300000 0
8.800000 0.300000 0
8.900000 0.300000 0
9.000000 0.300000 0
9.100000 0.300000 0
9.200000 0.300000 0
9.300000 0.300000 0
9.400000 0.300000 0
9.500000 0.300000 0
9.600000 0.300000 0
9.700000 0.300000 0
9.800000 0.300000 0
9.900000 0.300000 0
10.000000 0.300000 0
0.000000 0.400000 0
0.100000 0.400000 0
0.200000 0.400000 0
0.300000 0.400000 0
0.400000 0.400000 0
0.500000 0.400000 0
0.600000 0.400000 0
0.700000 0.400000 0
0.800000 0.400000 0
0.900000 0.400000 0
1.000000 0.400000 0
1.100000 0.400000 0
1.200000 0.400000 0
1.300000 0.400000 0
1.400000 0.400000 0
1.500000 0.400000 0
1.600000 0.400000 0
1.700000 0.400000 0
1.800000 0.400000 0
1.900000 0.400000 0
2.000000 0.400000 0
2.100000 0.400000 0
2.200000 0.400000 0
2.300000 0.400000 0
2.400000 0.400000 0
2.500000 0.400000 0
2.600000 0.400000 0
2.700000 0.400000 0
2.800000 0.400000 0
2.900000 0.400000 0
3.000000 0.400000 0
3.100000 0.400000 0
3.200000 0.400000 0
3.300000 0.400000 0
3.400000 0.400000 0
3.500000 0.400000 0
3.600000 0.400000 0
3.700000 0.400000 0
3.800000 0.400000 0
3.900000 0.400000 0
4.000000 0.400000 0
4.100000 0.400000 0
4.200000 0.400000 0
4.300000 0.400000 0
4.400000 0.400000 0
4.500000 0.400000 0
4.600000 0.400000 0
4.700000 0.400000 0
4.800000 0.400000 0
4.900000 0.400000 0
5.000000 0.400000 0
5.100000 0.400000 0
5.200000 0.400000 0
5.300000 0.400000 0
5.400000 0.400000 0
5.500000 0.400000 0
5.600000 0.400000 0
5.700000 0.400000 0
5.800000 0.400000 0
5.900000 0.400000 0
6.000000 0.400000 0
6.100000 0.400000 0
6.200000 0.400000 0
6.300000 0.400000 0
6.400000 0.400000 0
6.500000 0.400000 0
6.600000 0.400000 0
6.700000 0.400000 0
6.800000 0.400000 0
6.900000 0.400000 0
7.000000 0.400000 0
7.100000 0.400000 0
7.200000 0.400000 0
7.300000 0.400000 0
7.400000 0.400000 0
7.500000 0.400000 0
7.600000 0.400000 0
7.700000 0.400000 0
7.800000 0.400000 0
7.900000 0.400000 0
8.000000 0.400000 0
8.100000 0.400000 0
8.200000 0.400000 0
8.300000 0.400000 0
8.400000 0.400000 0
8.500000 0.400000 0
8.600000 0.400000 0
[...]
POINT_DATA 2121 

VECTORS velocity float
0.500000 0.000000 0
-0.000263 0.000000 0
-0.001113 0.000000 0
-0.001377 0.000000 0
-0.000285 0.000000 0
0.001306 0.000000 0
0.002685 0.000000 0
0.003794 0.000000 0
0.004707 0.000000 0
0.005408 0.000000 0
0.005840 0.000000 0
0.005962 0.000000 0
0.005788 0.000000 0
0.005376 0.000000 0
0.004814 0.000000 0
0.004190 0.000000 0
0.003575 0.000000 0
0.003018 0.000000 0
0.002543 0.000000 0
0.002160 0.000000 0
0.001863 0.000000 0
0.001642 0.000000 0
0.001484 0.000000 0
0.001374 0.000000 0
0.001301 0.000000 0
0.001255 0.000000 0
0.001228 0.000000 0
0.001215 0.000000 0
0.001211 0.000000 0
0.001213 0.000000 0
0.001220 0.000000 0
0.001229 0.000000 0
0.001239 0.000000 0
0.001251 0.000000 0
0.001263 0.000000 0
0.001276 0.000000 0
0.001289 0.000000 0
0.001303 0.000000 0
0.001318 0.000000 0
0.001333 0.000000 0
0.001349 0.000000 0
0.001366 0.000000 0
0.001384 0.000000 0
0.001404 0.000000 0
0.001424 0.000000 0
0.001447 0.000000 0
0.001470 0.000000 0
0.001495 0.000000 0
0.001522 0.000000 0
0.001550 0.000000 0
0.001580 0.000000 0
0.001611 0.000000 0
0.001645 0.000000 0
0.001680 0.000000 0
0.001717 0.000000 0
0.001755 0.000000 0
0.001795 0.000000 0
0.001838 0.000000 0
0.001881 0.000000 0
0.001927 0.000000 0
0.001974 0.000000 0
0.002024 0.000000 0
0.002074 0.000000 0
0.002127 0.000000 0
0.002181 0.000000 0
0.002237 0.000000 0
0.002294 0.000000 0
0.002353 0.000000 0
0.002413 0.000000 0
0.002475 0.000000 0
0.002539 0.000000 0
0.002604 0.000000 0
0.002670 0.000000 0
0.002737 0.000000 0
0.002806 0.000000 0
0.002876 0.000000 0
0.002948 0.000000 0
0.003020 0.000000 0
0.003094 0.000000 0
0.003168 0.000000 0
0.003244 0.000000 0
0.003321 0.000000 0
0.003399 0.000000 0
0.003477 0.000000 0
0.003557 0.000000 0
0.003637 0.000000 0
0.003718 0.000000 0
0.003799 0.000000 0
0.003882 0.000000 0
0.003965 0.000000 0
0.004048 0.000000 0
0.004132 0.000000 0
0.004217 0.000000 0
0.004303 0.000000 0
0.004389 0.000000 0
0.004476 0.000000 0
0.004564 0.000000 0
0.004654 0.000000 0
0.004747 0.000000 0
0.004849 0.000000 0
0.004937 0.000000 0
1.000000 0.000236 0
0.962341 -0.028459 0
0.962349 -0.045348 0
0.975192 -0.054351 0
0.994849 -0.055923 0
1.015687 -0.053515 0
1.035105 -0.049776 0
1.051397 -0.044722 0
1.062006 -0.037629 0
1.063884 -0.028790 0
1.055544 -0.019615 0
1.037757 -0.011733 0
1.012989 -0.006236 0
0.984355 -0.003433 0
0.954700 -0.003008 0
0.926124 -0.004305 0
0.899877 -0.006603 0
0.876493 -0.009298 0
0.855992 -0.011969 0
0.838096 -0.014369 0
0.822397 -0.016383 0
0.808458 -0.017994 0
0.795875 -0.019232 0
0.784306 -0.020154 0
0.773475 -0.020821 0
0.763166 -0.021289 0
0.753216 -0.021607 0
0.743508 -0.021815 0
0.733955 -0.021943 0
0.724497 -0.022014 0
0.715090 -0.022047 0
0.705708 -0.022054 0
0.696331 -0.022043 0
0.686948 -0.022021 0
0.677551 -0.021994 0
0.668139 -0.021963 0
0.658708 -0.021931 0
0.649261 -0.021899 0
0.639796 -0.021868 0
0.630317 -0.021839 0
0.620825 -0.021812 0
0.611322 -0.021786 0
0.601810 -0.021762 0
0.592291 -0.021740 0
0.582766 -0.021720 0
0.573237 -0.021700 0
0.563706 -0.021683 0
0.554173 -0.021666 0
0.544640 -0.021650 0
0.535108 -0.021636 0
0.525577 -0.021622 0
0.516048 -0.021608 0
0.506522 -0.021596 0
0.497000 -0.021583 0
0.487481 -0.021572 0
0.477966 -0.021560 0
0.468456 -0.021550 0
0.458950 -0.021539 0
0.449449 -0.021529 0
0.439952 -0.021518 0
0.430461 -0.021509 0
0.420975 -0.021499 0
0.411494 -0.021489 0
0.402017 -0.021480 0
0.392546 -0.021471 0
0.383080 -0.021462 0
0.373619 -0.021453 0
0.364162 -0.021445 0
0.354711 -0.021436 0
0.345264 -0.021428 0
0.335822 -0.021420 0
0.326384 -0.021412 0
0.316951 -0.021405 0
0.307522 -0.021397 0
0.298096 -0.021390 0
0.288675 -0.021383 0
0.279258 -0.021376 0
0.269845 -0.021369 0
0.260435 -0.021363 0
0.251028 -0.021357 0
0.241625 -0.021351 0
0.232225 -0.021345 0
0.222827 -0.021340 0
0.213433 -0.021335 0
0.204041 -0.021330 0
0.194652 -0.021325 0
0.185265 -0.021321 0
0.175881 -0.021317 0
0.166499 -0.021314 0
0.157119 -0.021311 0
0.147741 -0.021309 0
0.138366 -0.021307 0
0.128992 -0.021305 0
0.119622 -0.021305 0
0.110254 -0.021307 0
0.100890 -0.021310 0
0.091533 -0.021318 0
0.082184 -0.021335 0
0.072849 -0.021375 0
0.063539 -0.021286 0
0.054079 -0.021488 0
1.000000 0.000458 0
0.964710 -0.026391 0
0.959472 -0.053219 0
0.964732 -0.072865 0
0.978315 -0.080853 0
0.996465 -0.080607 0
1.016526 -0.076054 0
1.035908 -0.067238 0
1.050418 -0.052815 0
1.054123 -0.033857 0
1.044559 -0.014182 0
1.023317 0.002257 0
0.994335 0.013115 0
0.962002 0.018013 0
0.929836 0.017966 0
0.900049 0.014571 0
0.873666 0.009393 0
0.850877 0.003660 0
0.831372 -0.001814 0
0.814625 -0.006601 0
0.800065 -0.010542 0
0.787171 -0.013643 0
0.775505 -0.015998 0
0.764723 -0.017732 0
0.754559 -0.018974 0
0.744820 -0.019839 0
0.735362 -0.020422 0
0.726085 -0.020800 0
0.716916 -0.021031 0
0.707808 -0.021158 0
0.698728 -0.021215 0
0.689652 -0.021225 0
0.680570 -0.021204 0
0.671471 -0.021164 0
0.662352 -0.021114 0
0.653212 -0.021059 0
0.644050 -0.021003 0
0.634867 -0.020947 0
0.625665 -0.020895 0
0.616447 -0.020845 0
0.607213 -0.020799 0
0.597967 -0.020757 0
0.588710 -0.020719 0
0.579444 -0.020684 0
0.570171 -0.020652 0
0.560892 -0.020623 0
0.551609 -0.020597 0
0.542323 -0.020573 0
0.533034 -0.020551 0
0.523745 -0.020531 0
0.514456 -0.020513 0
0.505167 -0.020496 0
0.495879 -0.020480 0
0.486593 -0.020465 0
0.477309 -0.020451 0
0.468027 -0.020438 0
0.458748 -0.020425 0
0.449472 -0.020414 0
0.440199 -0.020402 0
0.430929 -0.020391 0
0.421663 -0.020381 0
0.412401 -0.020371 0
0.403142 -0.020361 0
0.393887 -0.020352 0
0.384635 -0.020342 0
0.375388 -0.020333 0
0.366144 -0.020325 0
0.356904 -0.020316 0
0.347668 -0.020308 0
0.338435 -0.020300 0
0.329206 -0.020292 0
0.319980 -0.020284 0
0.310758 -0.020277 0
0.301539 -0.020270 0
0.292324 -0.020263 0
0.283111 -0.020256 0
0.273902 -0.020250 0
0.264696 -0.020243 0
0.255493 -0.020237 0
0.246293 -0.020232 0
0.237095 -0.020226 0
0.227900 -0.020221 0
0.218707 -0.020216 0
0.209517 -0.020211 0
0.200329 -0.020207 0
0.191143 -0.020203 0
0.181959 -0.020199 0
0.172777 -0.020196 0
0.163597 -0.020193 0
0.154419 -0.020191 0
0.145242 -0.020189 0
0.136068 -0.020188 0
0.126895 -0.020189 0
0.117725 -0.020190 0
0.108556 -0.020194 0
0.099391 -0.020201 0
0.090228 -0.020214 0
0.081067 -0.020235 0
0.071907 -0.020273 0
0.062735 -0.020148 0
0.053523 -0.020305 0
1.000000 0.000594 0
0.968020 -0.028302 0
0.964672 -0.062071 0
0.969168 -0.089891 0
0.981054 -0.104351 0
0.999112 -0.108417 0
1.022551 -0.105907 0
1.049468 -0.095298 0
1.074089 -0.072524 0
1.082346 -0.039607 0
1.070140 -0.005481 0
1.041453 0.021824 0
1.003610 0.038418 0
0.963580 0.044410 0
0.926057 0.042294 0
0.893319 0.035220 0
0.865899 0.025929 0
0.843329 0.016362 0
0.824722 0.007654 0
0.809135 0.000317 0
0.795741 -0.005544 0
0.783887 -0.010042 0
0.773085 -0.013385 0
0.762986 -0.015802 0
0.753347 -0.017505 0
0.743999 -0.018671 0
0.734826 -0.019443 0
0.725753 -0.019932 0
0.716728 -0.020222 0
0.707718 -0.020373 0
0.698703 -0.020430 0
0.689671 -0.020426 0
0.680614 -0.020383 0
0.671531 -0.020317 0
0.662420 -0.020239 0
0.653282 -0.020156 0
0.644119 -0.020073 0
0.634933 -0.019993 0
0.625727 -0.019917 0
0.616504 -0.019847 0
0.607266 -0.019783 0
0.598015 -0.019725 0
0.588753 -0.019672 0
0.579483 -0.019625 0
0.570206 -0.019582 0
0.560924 -0.019544 0
0.551638 -0.019509 0
0.542349 -0.019478 0
0.533058 -0.019451 0
0.523767 -0.019426 0
0.514476 -0.019403 0
0.505185 -0.019382 0
0.495896 -0.019363 0
0.486609 -0.019346 0
0.477323 -0.019330 0
0.468041 -0.019315 0
0.458761 -0.019301 0
0.449484 -0.019288 0
0.440211 -0.019275 0
0.430940 -0.019264 0
0.421674 -0.019253 0
0.412411 -0.019242 0
0.403152 -0.019232 0
0.393897 -0.019223 0
0.384645 -0.019213 0
0.375397 -0.019204 0
0.366153 -0.019196 0
0.356913 -0.019187 0
0.347676 -0.019179 0
0.338443 -0.019172 0
0.329214 -0.019164 0
0.319988 -0.019157 0
0.310766 -0.019149 0
0.301547 -0.019143 0
0.292331 -0.019136 0
0.283118 -0.019130 0
0.273909 -0.019123 0
0.264703 -0.019117 0
0.255499 -0.019112 0
0.246298 -0.019106 0
0.237100 -0.019101 0
0.227905 -0.019096 0
0.218712 -0.019092 0
0.209521 -0.019087 0
0.200333 -0.019083 0
0.191147 -0.019080 0
0.181962 -0.019077 0
0.172780 -0.019074 0
0.163599 -0.019072 0
0.154421 -0.019070 0
0.145243 -0.019069 0
0.136068 -0.019069 0
0.126894 -0.019071 0
0.117722 -0.019074 0
0.108551 -0.019079 0
0.099381 -0.019087 0
0.090212 -0.019100 0
0.081042 -0.019120 0
0.071867 -0.019148 0
0.062679 -0.019008 0
0.053485 -0.019144 0
1.000000 0.000689 0
0.968854 -0.031434 0
0.965576 -0.071066 0
0.968497 -0.105943 0
0.978386 -0.127492 0
0.996493 -0.138796 0
1.025082 -0.143097 0
1.065358 -0.135460 0
1.113794 -0.102374 0
1.130940 -0.046583 0
1.112223 0.010041 0
1.068774 0.052121 0
1.015095 0.074327 0
0.962670 0.078910 0
0.917514 0.071578 0
0.881289 0.058084 0
0.853292 0.042743 0
0.831826 0.028204 0
0.815063 0.015753 0
0.801461 0.005759 0
0.789885 -0.001908 0
0.779555 -0.007594 0
0.769965 -0.011698 0
0.760795 -0.014588 0
0.751848 -0.016572 0
0.743004 -0.017896 0
0.734193 -0.018747 0
0.725375 -0.019265 0
0.716526 -0.019551 0
0.707635 -0.019681 0
0.698699 -0.019707 0
0.689716 -0.019666 0
0.680689 -0.019586 0
0.671622 -0.019483 0
0.662517 -0.019369 0
0.653380 -0.019254 0
0.644213 -0.019141 0
0.635022 -0.019034 0
0.625810 -0.018935 0
0.616580 -0.018844 0
0.607334 -0.018761 0
0.598076 -0.018687 0
0.588808 -0.018620 0
0.579532 -0.018560 0
0.570250 -0.018507 0
0.560963 -0.018460 0
0.551673 -0.018418 0
0.542380 -0.018381 0
0.533086 -0.018347 0
0.523792 -0.018317 0
0.514498 -0.018291 0
0.505206 -0.018267 0
0.495915 -0.018245 0
0.486626 -0.018225 0
0.477339 -0.018207 0
0.468055 -0.018191 0
0.458774 -0.018175 0
0.449497 -0.018161 0
0.440222 -0.018148 0
0.430952 -0.018136 0
0.421684 -0.018124 0
0.412421 -0.018114 0
0.403161 -0.018103 0
0.393906 -0.018094 0
0.384654 -0.018084 0
0.375405 -0.018075 0
0.366161 -0.018067 0
0.356921 -0.018059 0
0.347684 -0.018051 0
0.338450 -0.018043 0
0.329221 -0.018036 0
0.319995 -0.018029 0
0.310772 -0.018022 0
0.301553 -0.018015 0
0.292337 -0.018009 0
0.283124 -0.018003 0
0.273915 -0.017997 0
0.264708 -0.017991 0
0.255504 -0.017986 0
0.246303 -0.017981 0
0.237105 -0.017976 0
0.227909 -0.017972 0
0.218716 -0.017968 0
0.209525 -0.017964 0
0.200336 -0.017960 0
0.191150 -0.017957 0
0.181965 -0.017954 0
0.172782 -0.017952 0
0.163601 -0.017950 0
0.154422 -0.017949 0
0.145244 -0.017949 0
0.136067 -0.017949 0
0.126892 -0.017951 0
0.117718 -0.017955 0
0.108544 -0.017960 0
0.099371 -0.017968 0
0.090197 -0.017980 0
0.081021 -0.017996 0
0.071840 -0.018016 0
0.062649 -0.017871 0
0.053465 -0.017995 0
1.000000 0.000737 0
0.968727 -0.034248 0
0.963684 -0.078414 0
0.962782 -0.119398 0
0.968085 -0.149041 0
0.983484 -0.171805 0
1.015898 -0.191460 0
1.074529 -0.200693 0
1.176801 -0.154785 0
1.211591 -0.054711 0
1.178101 0.040015 0
1.106103 0.102288 0
1.025259 0.127862 0
0.954480 0.125336 0
0.900040 0.107026 0
0.861033 0.082797 0
0.834156 0.058753 0
0.815626 0.037958 0
0.802244 0.021393 0
0.791766 0.008874 0
0.782785 -0.000251 0
0.774487 -0.006729 0
0.766429 -0.011225 0
0.758384 -0.014278 0
0.750249 -0.016300 0
0.741981 -0.017595 0
0.733573 -0.018384 0
0.725031 -0.018827 0
0.716370 -0.019037 0
0.707603 -0.019092 0
0.698745 -0.019049 0
0.689810 -0.018947 0
0.680809 -0.018810 0
0.671754 -0.018658 0
0.662652 -0.018502 0
0.653511 -0.018348 0
0.644338 -0.018203 0
0.635138 -0.018068 0
0.625915 -0.017944 0
0.616675 -0.017831 0
0.607420 -0.017731 0
0.598153 -0.017641 0
0.588876 -0.017561 0
0.579593 -0.017490 0
0.570303 -0.017427 0
0.561010 -0.017371 0
0.551714 -0.017322 0
0.542417 -0.017279 0
0.533119 -0.017241 0
0.523821 -0.017206 0
0.514525 -0.017176 0
0.505229 -0.017149 0
0.495936 -0.017125 0
0.486645 -0.017103 0
0.477356 -0.017083 0
0.468071 -0.017065 0
0.458789 -0.017049 0
0.449510 -0.017034 0
0.440235 -0.017020 0
0.430963 -0.017007 0
0.421695 -0.016996 0
0.412431 -0.016984 0
0.403171 -0.016974 0
0.393915 -0.016964 0
0.384662 -0.016955 0
0.375414 -0.016946 0
0.366169 -0.016938 0
0.356928 -0.016930 0
0.347691 -0.016922 0
0.338458 -0.016915 0
0.329228 -0.016907 0
0.320001 -0.016901 0
0.310779 -0.016894 0
0.301559 -0.016888 0
0.292343 -0.016882 0
0.283130 -0.016876 0
0.273920 -0.016871 0
0.264713 -0.016865 0
0.255509 -0.016860 0
0.246308 -0.016856 0
0.237110 -0.016851 0
0.227914 -0.016847 0
0.218720 -0.016843 0
0.209529 -0.016840 0
0.200340 -0.016837 0
0.191152 -0.016834 0
0.181967 -0.016831 0
0.172784 -0.016829 0
0.163602 -0.016828 0
0.154422 -0.016827 0
0.145243 -0.016827 0
0.136066 -0.016828 0
0.126889 -0.016831 0
0.117713 -0.016834 0
0.108538 -0.016839 0
0.099362 -0.016846 0
0.090185 -0.016856 0
0.081006 -0.016868 0
0.071822 -0.016881 0
0.062632 -0.016739 0
0.053455 -0.016853 0
1.000000 0.000722 0
0.967997 -0.035486 0
0.959426 -0.081820 0
0.951754 -0.127041 0
0.947895 -0.164889 0
0.953474 -0.203300 0
0.980090 -0.250831 0
1.050785 -0.313046 0
1.234492 -0.256115 0
1.304567 -0.064558 0
1.261159 0.098861 0
1.146634 0.188299 0
1.023762 0.209290 0
0.929577 0.187475 0
0.867102 0.148375 0
0.828652 0.107324 0
0.806678 0.071512 0
0.794279 0.043484 0
0.786525 0.022986 0
0.780576 0.008597 0
0.775006 -0.001243 0
0.769183 -0.007845 0
0.762882 -0.012195 0
0.756068 -0.015000 0
0.748785 -0.016754 0
0.741102 -0.017799 0
0.733090 -0.018368 0
0.724812 -0.018624 0
0.716323 -0.018677 0
0.707665 -0.018602 0
0.698872 -0.018452 0
0.689973 -0.018261 0
0.680989 -0.018051 0
0.671936 -0.017838 0
0.662829 -0.017631 0
0.653679 -0.017435 0
0.644493 -0.017254 0
0.635280 -0.017090 0
0.626044 -0.016941 0
0.616790 -0.016808 0
0.607522 -0.016690 0
0.598243 -0.016585 0
0.588956 -0.016492 0
0.579663 -0.016411 0
0.570366 -0.016339 0
0.561065 -0.016276 0
0.551763 -0.016221 0
0.542459 -0.016172 0
0.533157 -0.016129 0
0.523854 -0.016092 0
0.514554 -0.016058 0
0.505255 -0.016029 0
0.495959 -0.016002 0
0.486666 -0.015979 0
0.477375 -0.015957 0
0.468088 -0.015938 0
0.458804 -0.015921 0
0.449524 -0.015906 0
0.440248 -0.015891 0
0.430975 -0.015878 0
0.421706 -0.015866 0
0.412442 -0.015855 0
0.403181 -0.015844 0
0.393924 -0.015834 0
0.384671 -0.015825 0
0.375422 -0.015816 0
0.366177 -0.015808 0
0.356936 -0.015800 0
0.347698 -0.015793 0
0.338464 -0.015786 0
0.329234 -0.015779 0
0.320008 -0.015773 0
0.310785 -0.015766 0
0.301565 -0.015760 0
0.292349 -0.015755 0
0.283135 -0.015749 0
0.273925 -0.015744 0
0.264718 -0.015739 0
0.255514 -0.015735 0
0.246313 -0.015730 0
0.237114 -0.015726 0
0.227917 -0.015722 0
0.218723 -0.015719 0
0.209532 -0.015716 0
0.200342 -0.015713 0
0.191155 -0.015710 0
0.181969 -0.015708 0
0.172785 -0.015707 0
0.163603 -0.015706 0
0.154422 -0.015705 0
0.145243 -0.015705 0
0.136064 -0.015707 0
0.126887 -0.015709 0
0.117709 -0.015712 0
0.108532 -0.015717 0
0.099355 -0.015723 0
0.090176 -0.015730 0
0.080995 -0.015739 0
0.071810 -0.015748 0
0.062622 -0.015611 0
0.053450 -0.015717 0
1.000000 0.000635 0
0.966854 -0.034042 0
0.953432 -0.078870 0
0.936333 -0.124563 0
0.917979 -0.167456 0
0.902370 -0.220692 0
0.898998 -0.305458 0
0.937047 -0.471779 0
1.125746 -0.425246 0
1.200255 -0.098051 0
1.214301 0.181281 0
1.133362 0.323022 0
1.011708 0.328262 0
0.892462 0.265343 0
0.814637 0.191301 0
0.780120 0.126577 0
0.769627 0.076487 0
0.768292 0.041479 0
0.769002 0.018469 0
0.769012 0.003773 0
0.767484 -0.005472 0
0.764361 -0.011212 0
0.759853 -0.014710 0
0.754226 -0.016773 0
0.747725 -0.017919 0
0.740555 -0.018477 0
0.732876 -0.018665 0
0.724809 -0.018623 0
0.716449 -0.018444 0
0.707865 -0.018188 0
0.699111 -0.017896 0
0.690226 -0.017593 0
0.681241 -0.017295 0
0.672178 -0.017011 0
0.663055 -0.016748 0
0.653886 -0.016507 0
0.644681 -0.016290 0
0.635448 -0.016096 0
0.626194 -0.015923 0
0.616923 -0.015770 0
0.607640 -0.015635 0
0.598347 -0.015517 0
0.589047 -0.015413 0
0.579743 -0.015322 0
0.570435 -0.015243 0
0.561126 -0.015174 0
0.551816 -0.015113 0
0.542506 -0.015060 0
0.533198 -0.015013 0
0.523891 -0.014973 0
0.514586 -0.014937 0
0.505283 -0.014905 0
0.495984 -0.014877 0
0.486688 -0.014852 0
0.477395 -0.014830 0
0.468106 -0.014810 0
0.458820 -0.014792 0
0.449539 -0.014776 0
0.440261 -0.014761 0
0.430987 -0.014748 0
0.421718 -0.014736 0
0.412452 -0.014724 0
0.403191 -0.014714 0
0.393933 -0.014704 0
0.384680 -0.014695 0
0.375430 -0.014687 0
0.366185 -0.014679 0
0.356943 -0.014671 0
0.347705 -0.014664 0
0.338471 -0.014657 0
0.329241 -0.014650 0
0.320014 -0.014644 0
0.310790 -0.014638 0
0.301570 -0.014633 0
0.292354 -0.014628 0
0.283140 -0.014622 0
0.273930 -0.014618 0
0.264723 -0.014613 0
0.255518 -0.014609 0
0.246317 -0.014605 0
0.237117 -0.014601 0
0.227921 -0.014597 0
0.218727 -0.014594 0
0.209535 -0.014591 0
0.200345 -0.014589 0
0.191157 -0.014587 0
0.181971 -0.014585 0
0.172787 -0.014583 0
0.163604 -0.014583 0
0.154422 -0.014582 0
0.145242 -0.014583 0
0.136063 -0.014584 0
0.126884 -0.014586 0
0.117706 -0.014589 0
0.108527 -0.014593 0
0.099349 -0.014597 0
0.090169 -0.014603 0
0.080987 -0.014609 0
0.071803 -0.014615 0
0.062616 -0.014486 0
0.053447 -0.014584 0
1.000000 0.000476 0
0.965613 -0.029285 0
0.947130 -0.067998 0
0.919926 -0.108285 0
0.884523 -0.147620 0
0.838890 -0.201011 0
0.775841 -0.302197 0
0.680367 -0.556480 0
0.507442 -0.536002 0
-0.029477 -0.169783 0
0.562162 0.149090 0
0.717739 0.374231 0
0.737728 0.433532 0
0.707855 0.367892 0
0.694546 0.244068 0
0.704760 0.135691 0
0.723293 0.066702 0
0.740249 0.027476 0
0.752193 0.005640 0
0.758989 -0.006504 0
0.761560 -0.013205 0
0.760928 -0.016820 0
0.757946 -0.018659 0
0.753260 -0.019465 0
0.747339 -0.019669 0
0.740522 -0.019527 0
0.733053 -0.019192 0
0.725104 -0.018759 0
0.716803 -0.018287 0
0.708241 -0.017811 0
0.699485 -0.017351 0
0.690584 -0.016920 0
0.681575 -0.016524 0
0.672484 -0.016165 0
0.663332 -0.015843 0
0.654134 -0.015556 0
0.644902 -0.015303 0
0.635643 -0.015080 0
0.626365 -0.014884 0
0.617073 -0.014713 0
0.607771 -0.014564 0
0.598462 -0.014434 0
0.589147 -0.014321 0
0.579830 -0.014222 0
0.570511 -0.014137 0
0.561192 -0.014062 0
0.551874 -0.013997 0
0.542557 -0.013941 0
0.533242 -0.013892 0
0.523929 -0.013849 0
0.514620 -0.013811 0
0.505313 -0.013778 0
0.496010 -0.013748 0
0.486711 -0.013723 0
0.477416 -0.013700 0
0.468124 -0.013679 0
0.458837 -0.013661 0
0.449554 -0.013645 0
0.440275 -0.013630 0
0.431000 -0.013617 0
0.421729 -0.013604 0
0.412463 -0.013593 0
0.403200 -0.013583 0
0.393942 -0.013573 0
0.384688 -0.013564 0
0.375438 -0.013556 0
0.366192 -0.013548 0
0.356950 -0.013541 0
0.347712 -0.013534 0
0.338477 -0.013528 0
0.329247 -0.013522 0
0.320019 -0.013516 0
0.310796 -0.013510 0
0.301576 -0.013505 0
0.292359 -0.013500 0
0.283145 -0.013495 0
0.273934 -0.013491 0
0.264727 -0.013487 0
0.255522 -0.013483 0
0.246320 -0.013479 0
0.237121 -0.013476 0
0.227924 -0.013472 0
0.218729 -0.013469 0
0.209537 -0.013467 0
0.200347 -0.013465 0
0.191159 -0.013463 0
0.181972 -0.013461 0
0.172788 -0.013460 0
0.163604 -0.013459 0
0.154422 -0.013459 0
0.145241 -0.013460 0
0.136061 -0.013461 0
0.126882 -0.013462 0
0.117703 -0.013465 0
0.108524 -0.013468 0
0.099344 -0.013471 0
0.090163 -0.013476 0
0.080982 -0.013480 0
0.071798 -0.013484 0
0.062613 -0.013363 0
0.053446 -0.013453 0
1.000000 0.000263 0
0.964695 -0.021539 0
0.942528 -0.049882 0
0.907947 -0.078653 0
0.860100 -0.103114 0
0.792577 -0.128703 0
0.686159 -0.163626 0
0.492854 -0.220067 0
0.029391 -0.005233 0
-0.595730 0.156911 0
0.000000 0.000842 0
0.167370 0.114734 0
0.328060 0.321489 0
0.424890 0.291871 0
0.530389 0.177747 0
0.617536 0.081186 0
0.678357 0.024360 0
0.717269 -0.004053 0
0.740534 -0.016896 0
0.753194 -0.022213 0
0.758841 -0.024024 0
0.759848 -0.024204 0
0.757748 -0.023641 0
0.753532 -0.022758 0
0.747852 -0.021766 0
0.741146 -0.020768 0
0.733712 -0.019816 0
0.725755 -0.018935 0
0.717422 -0.018135 0
0.708814 -0.017416 0
0.700008 -0.016777 0
0.691054 -0.016212 0
0.681994 -0.015716 0
0.672856 -0.015281 0
0.663660 -0.014902 0
0.654421 -0.014572 0
0.645153 -0.014285 0
0.635862 -0.014037 0
0.626556 -0.013821 0
0.617239 -0.013635 0
0.607915 -0.013474 0
0.598586 -0.013334 0
0.589255 -0.013214 0
0.579923 -0.013110 0
0.570592 -0.013019 0
0.561262 -0.012941 0
0.551935 -0.012874 0
0.542610 -0.012815 0
0.533288 -0.012764 0