# vtk DataFile Version 2.0
generated by CFD-lab course output (written by Tobias Neckel) 
ASCII

DATASET STRUCTURED_GRID
DIMENSIONS  101 21 1 
POINTS 2121 float

0.000000 0.000000 0
0.100000 0.000000 0
0.200000 0.000000 0
0.300000 0.000000 0
0.400000 0.000000 0
0.500000 0.000000 0
0.600000 0.000000 0
0.700000 0.000000 0
0.800000 0.000000 0
0.900000 0.000000 0
1.000000 0.000000 0
1.100000 0.000000 0
1.200000 0.000000 0
1.300000 0.000000 0
1.400000 0.000000 0
1.500000 0.000000 0
1.600000 0.000000 0
1.700000 0.000000 0
1.800000 0.000000 0
1.900000 0.000000 0
2.000000 0.000000 0
2.100000 0.000000 0
2.200000 0.000000 0
2.300000 0.000000 0
2.400000 0.000000 0
2.500000 0.000000 0
2.600000 0.000000 0
2.700000 0.000000 0
2.800000 0.000000 0
2.900000 0.000000 0
3.000000 0.000000 0
3.100000 0.000000 0
3.200000 0.000000 0
3.300000 0.000000 0
3.400000 0.000000 0
3.500000 0.000000 0
3.600000 0.000000 0
3.700000 0.000000 0
3.800000 0.000000 0
3.900000 0.000000 0
4.000000 0.000000 0
4.100000 0.000000 0
4.200000 0.000000 0
4.300000 0.000000 0
4.400000 0.000000 0
4.500000 0.000000 0
4.600000 0.000000 0
4.700000 0.000000 0
4.800000 0.000000 0
4.900000 0.000000 0
5.000000 0.000000 0
5.100000 0.000000 0
5.200000 0.000000 0
5.300000 0.000000 0
5.400000 0.000000 0
5.500000 0.000000 0
5.600000 0.000000 0
5.700000 0.000000 0
5.800000 0.000000 0
5.900000 0.000000 0
6.000000 0.000000 0
6.100000 0.000000 0
6.200000 0.000000 0
6.300000 0.000000 0
6.400000 0.000000 0
6.500000 0.000000 0
6.600000 0.000000 0
6.700000 0.000000 0
6.800000 0.000000 0
6.900000 0.000000 0
7.000000 0.000000 0
7.100000 0.000000 0
7.200000 0.000000 0
7.300000 0.000000 0
7.400000 0.000000 0
7.500000 0.000000 0
7.600000 0.000000 0
7.700000 0.000000 0
7.800000 0.000000 0
7.900000 0.000000 0
8.000000 0.000000 0
8.100000 0.000000 0
8.200000 0.000000 0
8.300000 0.000000 0
8.400000 0.000000 0
8.500000 0.000000 0
8.600000 0.000000 0
8.700000 0.000000 0
8.800000 0.000000 0
8.900000 0.000000 0
9.000000 0.000000 0
9.100000 0.000000 0
9.200000 0.000000 0
9.300000 0.000000 0
9.400000 0.000000 0
9.500000 0.000000 0
9.600000 0.000000 0
9.700000 0.000000 0
9.800000 0.000000 0
9.900000 0.000000 0
10.000000 0.000000 0
0.000000 0.100000 0
0.100000 0.100000 0
0.200000 0.100000 0
0.300000 0.100000 0
0.400000 0.100000 0
0.500000 0.100000 0
0.600000 0.100000 0
0.700000 0.100000 0
0.800000 0.100000 0
0.900000 0.100000 0
1.000000 0.100000 0
1.100000 0.100000 0
1.200000 0.100000 0
1.300000 0.100000 0
1.400000 0.100000 0
1.500000 0.100000 0
1.600000 0.100000 0
1.700000 0.100000 0
1.800000 0.100000 0
1.900000 0.100000 0
2.000000 0.100000 0
2.100000 0.100000 0
2.200000 0.100000 0
2.300000 0.100000 0
2.400000 0.100000 0
2.500000 0.100000 0
2.600000 0.100000 0
2.700000 0.100000 0
2.800000 0.100000 0
2.900000 0.100000 0
3.000000 0.100000 0
3.100000 0.100000 0
3.200000 0.100000 0
3.300000 0.100000 0
3.400000 0.100000 0
3.500000 0.100000 0
3.600000 0.100000 0
3.700000 0.100000 0
3.800000 0.100000 0
3.900000 0.100000 0
4.000000 0.100000 0
4.100000 0.100000 0
4.200000 0.100000 0
4.300000 0.100000 0
4.400000 0.100000 0
4.500000 0.100000 0
4.600000 0.100000 0
4.700000 0.100000 0
4.800000 0.100000 0
4.900000 0.100000 0
5.000000 0.100000 0
5.100000 0.100000 0
5.200000 0.100000 0
5.300000 0.100000 0
5.400000 0.100000 0
5.500000 0.100000 0
5.600000 0.100000 0
5.700000 0.100000 0
5.800000 0.100000 0
5.900000 0.100000 0
6.000000 0.100000 0
6.100000 0.100000 0
6.200000 0.100000 0
6.300000 0.100000 0
6.400000 0.100000 0
6.500000 0.100000 0
6.600000 0.100000 0
6.700000 0.100000 0
6.800000 0.100000 0
6.900000 0.100000 0
7.000000 0.100000 0
7.100000 0.100000 0
7.200000 0.100000 0
7.300000 0.100000 0
7.400000 0.100000 0
7.500000 0.100000 0
7.600000 0.100000 0
7.700000 0.100000 0
7.800000 0.100000 0
7.900000 0.100000 0
8.000000 0.100000 0
8.100000 0.100000 0
8.200000 0.100000 0
8.300000 0.100000 0
8.400000 0.100000 0
8.500000 0.100000 0
8.600000 0.100000 0
8.700000 0.100000 0
8.800000 0.100000 0
8.900000 0.100000 0
9.000000 0.100000 0
9.100000 0.100000 0
9.200000 0.100000 0
9.300000 0.100000 0
9.400000 0.100000 0
9.500000 0.100000 0
9.600000 0.100000 0
9.700000 0.100000 0
9.800000 0.100000 0
9.900000 0.100000 0
10.000000 0.100000 0
0.000000 0.200000 0
0.100000 0.200000 0
0.200000 0.200000 0
0.300000 0.200000 0
0.400000 0.200000 0
0.500000 0.200000 0
0.600000 0.200000 0
0.700000 0.200000 0
0.800000 0.200000 0
0.900000 0.200000 0
1.000000 0.200000 0
1.100000 0.200000 0
1.200000 0.200000 0
1.300000 0.200000 0
1.400000 0.200000 0
1.500000 0.200000 0
1.600000 0.200000 0
1.700000 0.200000 0
1.800000 0.200000 0
1.900000 0.200000 0
2.000000 0.200000 0
2.100000 0.200000 0
2.200000 0.200000 0
2.300000 0.200000 0
2.400000 0.200000 0
2.500000 0.200000 0
2.600000 0.200000 0
2.700000 0.200000 0
2.800000 0.200000 0
2.900000 0.200000 0
3.000000 0.200000 0
3.100000 0.200000 0
3.200000 0.200000 0
3.300000 0.200000 0
3.400000 0.200000 0
3.500000 0.200000 0
3.600000 0.200000 0
3.700000 0.200000 0
3.800000 0.200000 0
3.900000 0.200000 0
4.000000 0.200000 0
4.100000 0.200000 0
4.200000 0.200000 0
4.300000 0.200000 0
4.400000 0.200000 0
4.500000 0.200000 0
4.600000 0.200000 0
4.700000 0.200000 0
4.800000 0.200000 0
4.900000 0.200000 0
5.000000 0.200000 0
5.100000 0.200000 0
5.200000 0.200000 0
5.300000 0.200000 0
5.400000 0.200000 0
5.500000 0.200000 0
5.600000 0.200000 0
5.700000 0.200000 0
5.800000 0.200000 0
5.900000 0.200000 0
6.000000 0.200000 0
6.100000 0.200000 0
6.200000 0.200000 0
6.300000 0.200000 0
6.400000 0.200000 0
6.500000 0.200000 0
6.600000 0.200000 0
6.700000 0.200000 0
6.800000 0.200000 0
6.900000 0.200000 0
7.000000 0.200000 0
7.100000 0.200000 0
7.200000 0.200000 0
7.300000 0.200000 0
7.400000 0.200000 0
7.500000 0.200000 0
7.600000 0.200000 0
7.700000 0.200000 0
7.800000 0.200000 0
7.900000 0.200000 0
8.000000 0.200000 0
8.100000 0.200000 0
8.200000 0.200000 0
8.300000 0.200000 0
8.400000 0.200000 0
8.500000 0.200000 0
8.600000 0.200000 0
8.700000 0.200000 0
8.800000 0.200000 0
8.900000 0.200000 0
9.000000 0.200000 0
9.100000 0.200000 0
9.200000 0.200000 0
9.300000 0.200000 0
9.400000 0.200000 0
9.500000 0.200000 0
9.600000 0.200000 0
9.700000 0.200000 0
9.800000 0.200000 0
9.900000 0.200000 0
10.000000 0.200000 0
0.000000 0.300000 0
0.100000 0.300000 0
0.200000 0.300000 0
0.300000 0.300000 0
0.400000 0.300000 0
0.500000 0.300000 0
0.600000 0.300000 0
0.700000 0.300000 0
0.800000 0.300000 0
0.900000 0.300000 0
1.000000 0.300000 0
1.100000 0.300000 0
1.200000 0.300000 0
1.300000 0.300000 0
1.400000 0.300000 0
1.500000 0.300000 0
1.600000 0.300000 0
1.700000 0.300000 0
1.800000 0.300000 0
1.900000 0.300000 0
2.000000 0.300000 0
2.100000 0.300000 0
2.200000 0.300000 0
2.300000 0.300000 0
2.400000 0.300000 0
2.500000 0.300000 0
2.600000 0.300000 0
2.700000 0.300000 0
2.800000 0.300000 0
2.900000 0.300000 0
3.000000 0.300000 0
3.100000 0.300000 0
3.200000 0.300000 0
3.300000 0.300000 0
3.400000 0.300000 0
3.500000 0.300000 0
3.600000 0.300000 0
3.700000 0.300000 0
3.800000 0.300000 0
3.900000 0.300000 0
4.000000 0.300000 0
4.100000 0.300000 0
4.200000 0.300000 0
4.300000 0.300000 0
4.400000 0.300000 0
4.500000 0.300000 0
4.600000 0.300000 0
4.700000 0.300000 0
4.800000 0.300000 0
4.900000 0.300000 0
5.000000 0.300000 0
5.100000 0.300000 0
5.200000 0.300000 0
5.300000 0.300000 0
5.400000 0.300000 0
5.500000 0.300000 0
5.600000 0.300000 0
5.700000 0.300000 0
5.800000 0.300000 0
5.900000 0.300000 0
6.000000 0.300000 0
6.100000 0.300000 0
6.200000 0.300000 0
6.300000 0.300000 0
6.400000 0.300000 0
6.500000 0.300000 0
6.600000 0.300000 0
6.700000 0.300000 0
6.800000 0.300000 0
6.900000 0.300000 0
7.000000 0.300000 0
7.100000 0.300000 0
7.200000 0.300000 0
7.300000 0.300000 0
7.400000 0.300000 0
7.500000 0.300000 0
7.600000 0.300000 0
7.700000 0.300000 0
7.800000 0.300000 0
7.900000 0.300000 0
8.000000 0.300000 0
8.100000 0.300000 0
8.200000 0.300000 0
8.300000 0.300000 0
8.400000 0.300000 0
8.500000 0.300000 0
8.600000 0.300000 0
8.700000 0.300000 0
8.800000 0.300000 0
8.900000 0.300000 0
9.000000 0.300000 0
9.100000 0.300000 0
9.200000 0.300000 0
9.300000 0.300000 0
9.400000 0.300000 0
9.500000 0.300000 0
9.600000 0.300000 0
9.700000 0.300000 0
9.800000 0.300000 0
9.900000 0.300000 0
10.000000 0.300000 0
0.000000 0.400000 0
0.100000 0.400000 0
0.200000 0.400000 0
0.300000 0.400000 0
0.400000 0.400000 0
0.500000 0.400000 0
0.600000 0.400000 0
0.700000 0.400000 0
0.800000 0.400000 0
0.900000 0.400000 0
1.000000 0.400000 0
1.100000 0.400000 0
1.200000 0.400000 0
1.300000 0.400000 0
1.400000 0.400000 0
1.500000 0.400000 0
1.600000 0.400000 0
1.700000 0.400000 0
1.800000 0.400000 0
1.900000 0.400000 0
2.000000 0.400000 0
2.100000 0.400000 0
2.200000 0.400000 0
2.300000 0.400000 0
2.400000 0.400000 0
2.500000 0.400000 0
2.600000 0.400000 0
2.700000 0.400000 0
2.800000 0.400000 0
2.900000 0.400000 0
3.000000 0.400000 0
3.100000 0.400000 0
3.200000 0.400000 0
3.300000 0.400000 0
3.400000 0.400000 0
3.500000 0.400000 0
3.600000 0.400000 0
3.700000 0.400000 0
3.800000 0.400000 0
3.900000 0.400000 0
4.000000 0.400000 0
4.100000 0.400000 0
4.200000 0.400000 0
4.300000 0.400000 0
4.400000 0.400000 0
4.500000 0.400000 0
4.600000 0.400000 0
4.700000 0.400000 0
4.800000 0.400000 0
4.900000 0.400000 0
5.000000 0.400000 0
5.100000 0.400000 0
5.200000 0.400000 0
5.300000 0.400000 0
5.400000 0.400000 0
5.500000 0.400000 0
5.600000 0.400000 0
5.700000 0.400000 0
5.800000 0.400000 0
5.900000 0.400000 0
6.000000 0.400000 0
6.100000 0.400000 0
6.200000 0.400000 0
6.300000 0.400000 0
6.400000 0.400000 0
6.500000 0.400000 0
6.600000 0.400000 0
6.700000 0.400000 0
6.800000 0.400000 0
6.900000 0.400000 0
7.000000 0.400000 0
7.100000 0.400000 0
7.200000 0.400000 0
7.300000 0.400000 0
7.400000 0.400000 0
7.500000 0.400000 0
7.600000 0.400000 0
7.700000 0.400000 0
7.800000 0.400000 0
7.900000 0.400000 0
8.000000 0.400000 0
8.100000 0.400000 0
8.200000 0.400000 0
8.300000 0.400000 0
8.400000 0.400000 0
8.500000 0.400000 0
8.600000 0.400000 0
[...]
POINT_DATA 2121 

VECTORS velocity float
0.500000 0.000000 0
0.000003 0.000000 0
0.000013 0.000000 0
0.000028 0.000000 0
0.000049 0.000000 0
0.000075 0.000000 0
0.000105 0.000000 0
0.000134 0.000000 0
0.000157 0.000000 0
0.000167 0.000000 0
0.000157 0.000000 0
0.000118 0.000000 0
0.000041 0.000000 0
-0.000083 0.000000 0
-0.000252 0.000000 0
-0.000470 0.000000 0
-0.000726 0.000000 0
-0.001001 0.000000 0
-0.001258 0.000000 0
-0.001445 0.000000 0
-0.001501 0.000000 0
-0.001377 0.000000 0
-0.001042 0.000000 0
-0.000532 0.000000 0
0.000095 0.000000 0
0.000764 0.000000 0
0.001406 0.000000 0
0.001967 0.000000 0
0.002409 0.000000 0
0.002706 0.000000 0
0.002842 0.000000 0
0.002806 0.000000 0
0.002594 0.000000 0
0.002203 0.000000 0
0.001633 0.000000 0
0.000883 0.000000 0
-0.000054 0.000000 0
-0.001179 0.000000 0
-0.002396 0.000000 0
-0.003590 0.000000 0
-0.004617 0.000000 0
-0.005304 0.000000 0
-0.005488 0.000000 0
-0.005066 0.000000 0
-0.004054 0.000000 0
-0.002607 0.000000 0
-0.000993 0.000000 0
0.000560 0.000000 0
0.001966 0.000000 0
0.003145 0.000000 0
0.004049 0.000000 0
0.004662 0.000000 0
0.004990 0.000000 0
0.005052 0.000000 0
0.004868 0.000000 0
0.004457 0.000000 0
0.003826 0.000000 0
0.002979 0.000000 0
0.001922 0.000000 0
0.000682 0.000000 0
-0.000639 0.000000 0
-0.001870 0.000000 0
-0.002974 0.000000 0
-0.003945 0.000000 0
-0.004773 0.000000 0
-0.005432 0.000000 0
-0.005869 0.000000 0
-0.005997 0.000000 0
-0.005708 0.000000 0
-0.004915 0.000000 0
-0.003614 0.000000 0
-0.001949 0.000000 0
-0.000178 0.000000 0
0.001553 0.000000 0
0.003154 0.000000 0
0.004520 0.000000 0
0.005553 0.000000 0
0.006174 0.000000 0
0.006324 0.000000 0
0.005974 0.000000 0
0.005140 0.000000 0
0.003896 0.000000 0
0.002377 0.000000 0
0.000771 0.000000 0
-0.000687 0.000000 0
-0.001796 0.000000 0
-0.002614 0.000000 0
-0.003232 0.000000 0
-0.003730 0.000000 0
-0.004166 0.000000 0
-0.004574 0.000000 0
-0.004955 0.000000 0
-0.005281 0.000000 0
-0.005493 0.000000 0
-0.005518 0.000000 0
-0.005290 0.000000 0
-0.004786 0.000000 0
-0.004050 0.000000 0
-0.003206 0.000000 0
-0.002411 0.000000 0
-0.001822 0.000000 0
1.000000 -0.000003 0
1.002680 -0.004791 0
1.010895 -0.010350 0
1.025005 -0.016346 0
1.045387 -0.022558 0
1.072242 -0.028595 0
1.105287 -0.033783 0
1.143345 -0.037197 0
1.184051 -0.037915 0
1.223780 -0.035620 0
1.259250 -0.030911 0
1.288491 -0.024849 0
1.310839 -0.018461 0
1.326578 -0.012529 0
1.336614 -0.007576 0
1.342225 -0.003897 0
1.344864 -0.001582 0
1.345977 -0.000530 0
1.346818 -0.000435 0
1.348233 -0.000793 0
1.350427 -0.000963 0
1.352812 -0.000326 0
1.354125 0.001523 0
1.352838 0.004627 0
1.347659 0.008685 0
1.337803 0.013225 0
1.323072 0.017749 0
1.303775 0.021830 0
1.280597 0.025150 0
1.254478 0.027494 0
1.226512 0.028724 0
1.197890 0.028759 0
1.169850 0.027556 0
1.143653 0.025097 0
1.120561 0.021376 0
1.101811 0.016375 0
1.088605 0.010037 0
1.082070 0.002402 0
1.083177 -0.006070 0
1.092585 -0.014569 0
1.110297 -0.022150 0
1.135294 -0.027727 0
1.165364 -0.030255 0
1.197217 -0.029045 0
1.226912 -0.024066 0
1.250574 -0.016120 0
1.265276 -0.006670 0
1.269713 0.002908 0
1.264169 0.011804 0
1.249756 0.019507 0
1.228029 0.025665 0
1.200772 0.030110 0
1.169820 0.032814 0
1.136959 0.033836 0
1.103866 0.033261 0
1.072109 0.031162 0
1.043144 0.027575 0
1.018305 0.022507 0
0.998744 0.015992 0
0.985327 0.008234 0
0.978535 -0.000101 0
0.978503 -0.008087 0
0.985032 -0.015201 0
0.997705 -0.021320 0
1.015955 -0.026384 0
1.039094 -0.030278 0
1.066289 -0.032759 0
1.096449 -0.033420 0
1.128035 -0.031735 0
1.158901 -0.027260 0
1.186337 -0.019969 0
1.207362 -0.010569 0
1.219307 -0.000290 0
1.220657 0.009876 0
1.211604 0.019340 0
1.193189 0.027548 0
1.167026 0.033952 0
1.135197 0.038069 0
1.100146 0.039518 0
1.064528 0.038065 0
1.030992 0.033718 0
1.001892 0.026820 0
0.978952 0.018101 0
0.963015 0.008657 0
0.954033 -0.000085 0
0.951367 -0.007002 0
0.953995 -0.011986 0
0.960786 -0.015513 0
0.970839 -0.018064 0
0.983552 -0.020012 0
0.998594 -0.021583 0
1.015806 -0.022828 0
1.035037 -0.023620 0
1.055957 -0.023674 0
1.077908 -0.022630 0
1.099847 -0.020194 0
1.120423 -0.016321 0
1.138185 -0.011418 0
1.151944 -0.006376 0
1.161191 -0.004405 0
1.168298 -0.004262 0
1.000000 -0.000006 0
1.003001 -0.010874 0
1.011688 -0.022318 0
1.026378 -0.034491 0
1.047670 -0.047239 0
1.076201 -0.059906 0
1.112237 -0.071111 0
1.154986 -0.078774 0
1.201992 -0.080449 0
1.247439 -0.075214 0
1.286702 -0.064727 0
1.317812 -0.051606 0
1.340617 -0.038101 0
1.355900 -0.025782 0
1.364939 -0.015647 0
1.369324 -0.008245 0
1.370768 -0.003744 0
1.370985 -0.001944 0
1.371529 -0.002248 0
1.373572 -0.003605 0
1.377529 -0.004578 0
1.382663 -0.003694 0
1.387132 -0.000021 0
1.388764 0.006470 0
1.385878 0.015038 0
1.377590 0.024588 0
1.363793 0.034029 0
1.344969 0.042474 0
1.321968 0.049294 0
1.295845 0.054080 0
1.267760 0.056582 0
1.238930 0.056655 0
1.210593 0.054228 0
1.183984 0.049280 0
1.160314 0.041833 0
1.140734 0.031945 0
1.126310 0.019732 0
1.118004 0.005422 0
1.116766 -0.010518 0
1.123580 -0.027119 0
1.138911 -0.042706 0
1.162277 -0.055061 0
1.192115 -0.061914 0
1.225822 -0.061539 0
1.259808 -0.053349 0
1.289748 -0.038357 0
1.311363 -0.019134 0
1.321756 0.001111 0
1.320708 0.019960 0
1.309717 0.036143 0
1.290686 0.048986 0
1.265660 0.058210 0
1.236635 0.063814 0
1.205458 0.065954 0
1.173791 0.064849 0
1.143100 0.060722 0
1.114636 0.053803 0
1.089402 0.044398 0
1.068095 0.032976 0
1.051065 0.020208 0
1.038408 0.006822 0
1.030315 -0.006500 0
1.027070 -0.019203 0
1.028782 -0.030923 0
1.035448 -0.041388 0
1.047077 -0.050330 0
1.063738 -0.057351 0
1.085406 -0.061741 0
1.111614 -0.062446 0
1.141145 -0.058296 0
1.171895 -0.048455 0
1.200881 -0.032964 0
1.224472 -0.013291 0
1.239223 0.007707 0
1.243476 0.027471 0
1.237896 0.044580 0
1.223885 0.057994 0
1.203289 0.066880 0
1.178212 0.070668 0
1.150813 0.069153 0
1.123095 0.062633 0
1.096691 0.052036 0
1.072740 0.038871 0
1.051876 0.024910 0
1.034404 0.011636 0
1.020669 0.000023 0
1.010882 -0.009436 0
1.004840 -0.016864 0
1.002177 -0.022789 0
1.002681 -0.027780 0
1.006391 -0.032280 0
1.013552 -0.036470 0
1.024425 -0.040181 0
1.039039 -0.042902 0
1.057030 -0.043922 0
1.077593 -0.042548 0
1.099544 -0.038370 0
1.121406 -0.031554 0
1.141535 -0.023039 0
1.158367 -0.016387 0
1.169336 -0.013094 0
1.000000 -0.000008 0
1.002602 -0.016473 0
1.010480 -0.033731 0
1.024240 -0.052333 0
1.044983 -0.072386 0
1.074204 -0.093168 0
1.113397 -0.112574 0
1.162909 -0.126959 0
1.221248 -0.130374 0
1.275760 -0.120337 0
1.319295 -0.101290 0
1.350948 -0.078768 0
1.372063 -0.056545 0
1.384359 -0.036845 0
1.389682 -0.020993 0
1.390034 -0.009717 0
1.387487 -0.003238 0
1.384116 -0.001288 0
1.381963 -0.003024 0
1.382865 -0.006798 0
1.387865 -0.010054 0
1.396188 -0.009927 0
1.404957 -0.004578 0
1.410409 0.005881 0
1.409984 0.019859 0
1.402715 0.035308 0
1.388774 0.050367 0
1.369018 0.063652 0
1.344609 0.074271 0
1.316796 0.081698 0
1.286835 0.085634 0
1.255973 0.085922 0
1.225440 0.082497 0
1.196443 0.075371 0
1.170138 0.064623 0
1.147609 0.050376 0
1.129837 0.032767 0
1.117698 0.011947 0
1.112007 -0.011642 0
1.113614 -0.036708 0
1.123048 -0.060842 0
1.140271 -0.080925 0
1.164821 -0.093795 0
1.195790 -0.096735 0
1.231191 -0.087992 0
1.267323 -0.067676 0
1.298858 -0.038679 0
1.320174 -0.006436 0
1.327998 0.023843 0
1.323572 0.049528 0
1.309350 0.069721 0
1.287839 0.084161 0
1.261359 0.093017 0
1.231941 0.096679 0
1.201291 0.095618 0
1.170799 0.090317 0
1.141550 0.081272 0
1.114360 0.069047 0
1.089806 0.054328 0
1.068268 0.037920 0
1.049932 0.020649 0
1.034722 0.003250 0
1.022439 -0.013668 0
1.013045 -0.029696 0
1.007054 -0.044675 0
1.005511 -0.058564 0
1.009812 -0.071085 0
1.021157 -0.081292 0
1.039884 -0.087471 0
1.065211 -0.087538 0
1.095361 -0.079703 0
1.127791 -0.063145 0
1.159359 -0.038632 0
1.186380 -0.009128 0
1.205086 0.020667 0
1.214056 0.047139 0
1.214020 0.068559 0
1.206248 0.083743 0
1.192290 0.091993 0
1.173749 0.093181 0
1.152124 0.087838 0
1.128727 0.077171 0
1.104714 0.062913 0
1.081133 0.046988 0
1.058887 0.031116 0
1.038540 0.016513 0
1.020387 0.003835 0
1.004592 -0.006816 0
0.991330 -0.015912 0
0.981098 -0.024234 0
0.974745 -0.032462 0
0.973158 -0.040871 0
0.976938 -0.049116 0
0.986131 -0.056287 0
1.000195 -0.061192 0
1.018128 -0.062717 0
1.038641 -0.060142 0
1.060281 -0.053416 0
1.081452 -0.043344 0
1.100442 -0.032214 0
1.113206 -0.025379 0
1.000000 -0.000011 0
1.002071 -0.021351 0
1.008494 -0.043961 0
1.020160 -0.068998 0
1.038796 -0.097208 0
1.067154 -0.128325 0
1.108984 -0.159822 0
1.167568 -0.186633 0
1.247022 -0.193307 0
1.313496 -0.173267 0
1.358423 -0.139920 0
1.386405 -0.104373 0
1.402149 -0.071506 0
1.408450 -0.043395 0
1.407445 -0.021315 0
1.401333 -0.006044 0
1.392211 0.002176 0
1.382595 0.003577 0
1.375059 -0.001001 0
1.372154 -0.009508 0
1.376519 -0.017898 0
1.388307 -0.020785 0
1.403677 -0.014242 0
1.416029 0.001442 0
1.420100 0.022731 0
1.414887 0.045796 0
1.401231 0.067723 0
1.380691 0.086635 0
1.354889 0.101512 0
1.325297 0.111850 0
1.293246 0.117401 0
1.259998 0.118046 0
1.226788 0.113754 0
1.194826 0.104579 0
1.165268 0.090664 0
1.139166 0.072246 0
1.117347 0.049643 0
1.100134 0.023254 0
1.087078 -0.006429 0
1.077601 -0.038155 0
1.072590 -0.069357 0
1.073580 -0.096829 0
1.082803 -0.117429 0
1.102417 -0.127908 0
1.132844 -0.124883 0
1.171786 -0.106025 0
1.214104 -0.071984 0
1.252379 -0.028029 0
1.278730 0.016562 0
1.289679 0.054791 0
1.287682 0.084720 0
1.275627 0.106201 0
1.256201 0.119711 0
1.231764 0.126021 0
1.204293 0.125990 0
1.175385 0.120462 0
1.146292 0.110241 0
1.117961 0.096141 0
1.091053 0.079067 0
1.065880 0.060081 0
1.042285 0.040368 0
1.019637 0.020994 0
0.997245 0.002476 0
0.975199 -0.015537 0
0.955158 -0.033851 0
0.940420 -0.053084 0
0.934190 -0.072994 0
0.938121 -0.091810 0
0.952015 -0.106497 0
0.974423 -0.113772 0
1.003299 -0.111034 0
1.036355 -0.096962 0
1.071150 -0.071879 0
1.104960 -0.038019 0
1.134379 -0.000205 0
1.155742 0.035646 0
1.168217 0.065803 0
1.172338 0.088610 0
1.169050 0.103167 0
1.159475 0.109318 0
1.144776 0.107654 0
1.126100 0.099442 0
1.104576 0.086460 0
1.081269 0.070732 0
1.057074 0.054224 0
1.032634 0.038518 0
1.008428 0.024506 0
0.985124 0.012187 0
0.963842 0.000699 0
0.946058 -0.011201 0
0.933371 -0.024346 0
0.927056 -0.038669 0
0.927547 -0.053160 0
0.934397 -0.066165 0
0.946575 -0.075924 0
0.962777 -0.081000 0
0.981615 -0.080529 0
1.001670 -0.074370 0
1.021439 -0.063206 0
1.039270 -0.048146 0
1.051720 -0.038303 0
1.000000 -0.000014 0
1.001240 -0.024967 0
1.005192 -0.051824 0
1.012860 -0.082640 0
1.026401 -0.119385 0
1.049873 -0.163362 0
1.090326 -0.212995 0
1.157454 -0.265003 0
1.273833 -0.276309 0
1.346427 -0.231743 0
1.379037 -0.174199 0
1.392844 -0.122489 0
1.397105 -0.078585 0
1.393946 -0.042135 0
1.384491 -0.013871 0
1.369171 0.005519 0
1.350295 0.015499 0
1.331031 0.015860 0
1.314566 0.007414 0
1.303605 -0.008256 0
1.301828 -0.026205 0
1.312830 -0.037085 0
1.334407 -0.032300 0
1.358376 -0.010544 0
1.373342 0.020999 0
1.375102 0.054175 0
1.366074 0.084560 0
1.348978 0.109991 0
1.325898 0.129662 0
1.298332 0.143338 0
1.267489 0.150929 0
1.234516 0.152376 0
1.200583 0.147666 0
1.166870 0.136889 0
1.134477 0.120281 0
1.104295 0.098298 0
1.076793 0.071801 0
1.051485 0.042220 0
1.026302 0.010896 0
0.998516 -0.022215 0
0.968891 -0.056817 0
0.944999 -0.091134 0
0.934952 -0.122630 0
0.942602 -0.146777 0
0.967564 -0.157362 0
1.006871 -0.148936 0
1.055916 -0.119271 0
1.108512 -0.071062 0
1.156594 -0.013456 0
1.191163 0.040576 0
1.209931 0.083773 0
1.215485 0.115642 0
1.210445 0.136879 0
1.197246 0.148586 0
1.178054 0.151996 0
1.154726 0.148317 0
1.128796 0.138695 0
1.101423 0.124284 0
1.073245 0.106408 0
1.044164 0.086689 0
1.013366 0.066893 0
0.980057 0.048291 0
0.944852 0.030771 0
0.910637 0.012394 0
0.881818 -0.009893 0
0.862578 -0.037592 0
0.855301 -0.068783 0
0.859596 -0.099115 0
0.873580 -0.123771 0
0.895153 -0.138820 0
0.922466 -0.141634 0
0.953873 -0.130996 0
0.987758 -0.107236 0
1.022377 -0.072357 0
1.055661 -0.030115 0
1.084399 0.013301 0
1.105645 0.051962 0
1.118935 0.082910 0
1.124499 0.104856 0
1.122925 0.117454 0
1.114984 0.121211 0
1.101527 0.117368 0
1.083400 0.107741 0
1.061374 0.094486 0
1.036134 0.079747 0
1.008450 0.065155 0
0.979500 0.051340 0
0.951150 0.037766 0
0.925804 0.023150 0
0.905767 0.006234 0
0.892564 -0.013464 0
0.886698 -0.035051 0
0.887721 -0.056461 0
0.894555 -0.075318 0
0.905921 -0.089575 0
0.920563 -0.097759 0
0.937292 -0.099037 0
0.954923 -0.093242 0
0.972177 -0.080947 0
0.987605 -0.062498 0
0.998655 -0.050263 0
1.000000 -0.000017 0
1.000050 -0.026546 0
1.000332 -0.055585 0
1.001551 -0.090212 0
1.005538 -0.134227 0
1.016584 -0.192256 0
1.044444 -0.267409 0
1.109023 -0.370146 0
1.275415 -0.382286 0
1.324577 -0.278473 0
1.313388 -0.186333 0
1.297548 -0.122436 0
1.285154 -0.072604 0
1.272375 -0.030777 0
1.253248 0.003462 0
1.226484 0.028152 0
1.194591 0.040312 0
1.161422 0.039302 0
1.131039 0.026427 0
1.106710 0.003234 0
1.090835 -0.027123 0
1.090407 -0.053365 0
1.111227 -0.059789 0
1.149266 -0.037495 0
1.190139 0.006002 0
1.216361 0.053061 0
1.226534 0.093844 0
1.226058 0.126807 0
1.217544 0.152155 0
1.202252 0.170255 0
1.181111 0.181213 0
1.155133 0.184949 0
1.125492 0.181397 0
1.093339 0.170682 0
1.059268 0.153240 0
1.022445 0.129932 0
0.980373 0.102456 0
0.930934 0.073750 0
0.876188 0.046546 0
0.823385 0.019261 0
0.781040 -0.015837 0
0.756131 -0.062888 0
0.751142 -0.115031 0
0.764095 -0.160521 0
0.792032 -0.189152 0
0.832365 -0.194376 0
0.882556 -0.173624 0
0.939390 -0.128707 0
0.998300 -0.066089 0
1.051877 0.001453 0
1.091562 0.060397 0
1.116581 0.105687 0
1.128820 0.137950 0
1.130231 0.158412 0
1.122729 0.168509 0
1.108076 0.169718 0
1.087723 0.163544 0
1.062582 0.151692 0
1.032784 0.136325 0
0.997778 0.119960 0
0.957281 0.104476 0
0.912924 0.089510 0
0.869236 0.071898 0
0.832537 0.047501 0
0.807952 0.014212 0
0.796849 -0.026564 0
0.797329 -0.070009 0
0.806349 -0.110087 0
0.821482 -0.142053 0
0.841315 -0.162657 0
0.865109 -0.169753 0
0.892310 -0.162253 0
0.922182 -0.140381 0
0.953669 -0.105921 0
0.985391 -0.062226 0
1.015537 -0.014336 0
1.040920 0.031267 0
1.059669 0.069756 0
1.071278 0.099176 0
1.075741 0.118831 0
1.073330 0.129050 0
1.064449 0.131025 0
1.049540 0.126611 0
1.029089 0.117995 0
1.003820 0.107145 0
0.975035 0.095150 0
0.944886 0.081803 0
0.916245 0.065882 0
0.892061 0.046081 0
0.874517 0.022036 0
0.864424 -0.005279 0
0.861229 -0.033826 0
0.863712 -0.061017 0
0.870562 -0.084366 0
0.880644 -0.101933 0
0.893025 -0.112370 0
0.906881 -0.114889 0
0.921371 -0.109255 0
0.935509 -0.095887 0
0.948114 -0.074624 0
0.957254 -0.060521 0
1.000000 -0.000019 0
0.998601 -0.025303 0
0.994298 -0.053331 0
0.986932 -0.087851 0
0.976644 -0.134425 0
0.964967 -0.202275 0
0.958350 -0.305439 0
0.979220 -0.495980 0
1.141323 -0.491866 0
1.129788 -0.269715 0
1.028538 -0.147166 0
0.974929 -0.094252 0
0.950254 -0.053407 0
0.935025 -0.010226 0
0.907819 0.032020 0
0.867284 0.064173 0
0.815229 0.080556 0
0.755988 0.079411 0
0.697997 0.062128 0
0.653626 0.031950 0
0.634448 -0.009903 0
0.646769 -0.057479 0
0.687510 -0.091161 0
0.751409 -0.089459 0
0.830078 -0.046100 0
0.906391 0.017776 0
0.962429 0.074859 0
0.997876 0.118978 0
1.019019 0.153464 0
1.027888 0.179767 0
1.025541 0.198045 0
1.012949 0.207992 0
0.990866 0.209457 0
0.959345 0.203112 0
0.917345 0.191176 0
0.863365 0.177195 0
0.797891 0.163316 0
0.726646 0.146409 0
0.661471 0.118450 0
0.615951 0.072938 0
0.597314 0.010440 0
0.600813 -0.061235 0
0.617039 -0.130594 0
0.640339 -0.187667 0
0.669417 -0.225631 0
0.705239 -0.239459 0
0.748855 -0.226296 0
0.799947 -0.186806 0
0.856374 -0.125943 0
0.914288 -0.052686 0
0.966084 0.019068 0
1.005091 0.078383 0
1.031247 0.123229 0
1.045490 0.154677 0
1.048996 0.174150 0
1.042921 0.183321 0
1.028118 0.184187 0
1.004904 0.179223 0
0.973196 0.171213 0
0.933460 0.162192 0
0.888268 0.151749 0
0.843106 0.136338 0
0.804948 0.111161 0
0.779142 0.073681 0
0.767185 0.025799 0
0.766940 -0.026965 0
0.774133 -0.078279 0
0.785376 -0.123266 0
0.798963 -0.158736 0
0.814493 -0.182447 0
0.832299 -0.192628 0
0.852867 -0.188068 0
0.876340 -0.168595 0
0.902266 -0.135564 0
0.929644 -0.091981 0
0.957089 -0.042227 0
0.982555 0.007831 0
1.003283 0.052552 0
1.018058 0.088784 0
1.026283 0.115401 0
1.027715 0.132501 0
1.022323 0.141157 0
1.010257 0.143099 0
0.992005 0.140203 0
0.968678 0.133799 0
0.942270 0.124089 0
0.915557 0.110130 0
0.891532 0.090591 0
0.872587 0.064878 0
0.859945 0.033870 0
0.853617 -0.000175 0
0.852706 -0.034337 0
0.855888 -0.065792 0
0.861970 -0.092249 0
0.870057 -0.112035 0
0.879524 -0.123993 0
0.889900 -0.127380 0
0.900710 -0.121867 0
0.911323 -0.107687 0
0.920874 -0.084240 0
0.927810 -0.068714 0
1.000000 -0.000021 0
0.997189 -0.020851 0
0.988345 -0.043923 0
0.972104 -0.072564 0
0.945804 -0.112268 0
0.904670 -0.173968 0
0.839965 -0.281668 0
0.736260 -0.553125 0
0.552298 -0.532856 0
0.000129 -0.165685 0
0.405058 -0.031470 0
0.338822 -0.044148 0
0.344974 -0.032697 0
0.366707 0.011659 0
0.366527 0.071202 0
0.334981 0.120739 0
0.283097 0.151605 0
0.223168 0.156535 0
0.171005 0.128790 0
0.145359 0.066783 0
0.160931 -0.020268 0
0.209305 -0.106430 0
0.275096 -0.164432 0
0.354266 -0.180065 0
0.447049 -0.148983 0
0.550912 -0.079293 0
0.648977 0.002355 0
0.724460 0.070214 0
0.776433 0.122140 0
0.809699 0.163730 0
0.825703 0.196149 0
0.825040 0.219622 0
0.807682 0.235000 0
0.773273 0.244204 0
0.722497 0.249221 0
0.659801 0.249389 0
0.595553 0.239180 0
0.543887 0.210175 0
0.515723 0.157245 0
0.513048 0.083421 0
0.529585 -0.000698 0
0.553841 -0.082613 0
0.577527 -0.154558 0
0.598461 -0.212897 0
0.618248 -0.254051 0
0.640519 -0.273814 0
0.669206 -0.268333 0
0.706662 -0.236226 0
0.752508 -0.180430 0
0.803886 -0.108258 0
0.856213 -0.030407 0
0.901515 0.040523 0
0.935610 0.097550 0
0.958161 0.140662 0
0.969359 0.171078 0
0.969522 0.190595 0
0.958860 0.201561 0
0.937591 0.206615 0
0.906668 0.207770 0
0.868974 0.204890 0
0.829951 0.194831 0
0.796389 0.172832 0
0.773624 0.135866 0
0.763310 0.085267 0
0.763558 0.026417 0
0.770761 -0.033509 0
0.781109 -0.088443 0
0.792072 -0.134915 0
0.802505 -0.171169 0
0.812445 -0.195992 0
0.822821 -0.208126 0
0.834977 -0.206293 0
0.850038 -0.189780 0
0.868372 -0.159224 0
0.889440 -0.117048 0
0.912028 -0.067246 0
0.934534 -0.014926 0
0.954481 0.034253 0
0.969952 0.076177 0
0.979856 0.109174 0
0.983540 0.133009 0
0.980684 0.148482 0
0.971375 0.156928 0
0.956317 0.159574 0
0.937052 0.156881 0
0.915939 0.148272 0
0.895722 0.132542 0
0.878803 0.108853 0
0.866630 0.077670 0
0.859543 0.041009 0
0.857051 0.001963 0
0.858205 -0.036093 0
0.861859 -0.070277 0
0.867019 -0.098531 0
0.872986 -0.119482 0
0.879358 -0.132209 0
0.885966 -0.136070 0
0.892724 -0.130672 0
0.899435 -0.116045 0
0.905646 -0.091106 0
0.910137 -0.074588 0
1.000000 -0.000021 0
0.996213 -0.013657 0
0.984241 -0.028253 0
0.961892 -0.045317 0
0.924551 -0.066998 0
0.862966 -0.096443 0
0.757390 -0.137035 0
0.564371 -0.208316 0
0.072573 -0.000492 0
-0.535162 0.129217 0
0.000000 -0.000025 0
-0.030045 -0.044779 0
-0.051292 -0.081290 0
-0.053730 -0.031779 0
-0.054916 0.063744 0
-0.068015 0.147601 0
-0.092262 0.192369 0
-0.114400 0.191503 0
-0.118508 0.139937 0
-0.090944 0.042023 0
-0.039711 -0.073850 0
0.016212 -0.171647 0
0.072429 -0.236126 0
0.132622 -0.261414 0
0.203105 -0.242749 0
0.287386 -0.184155 0
0.382893 -0.098693 0
0.473408 -0.008483 0
0.543242 0.068222 0
0.590882 0.130495 0
0.618174 0.182701 0
0.625532 0.226012 0
0.613465 0.261225 0
0.584314 0.288297 0
0.544278 0.304650 0
0.504215 0.304143 0
0.476959 0.279234 0
0.471483 0.226243 0
0.488425 0.149293 0
0.520933 0.059079 0
0.557777 -0.030352 0
0.589244 -0.109178 0
0.612112 -0.175214 0
0.626016 -0.228387 0
0.632988 -0.267689 0
0.637388 -0.290417 0
0.645113 -0.292439 0
0.661623 -0.270109 0
0.689536 -0.223168 0
0.727551 -0.156392 0
0.771443 -0.078561 0
0.815142 -0.001014 0
0.851288 0.066581 0
0.877344 0.120927 0
0.892486 0.162788 0
0.896376 0.193820 0
0.889070 0.216118 0
0.871478 0.231416 0
0.846186 0.239830 0
0.817945 0.238909 0
0.792871 0.224337 0
0.776211 0.192669 0