# vtk DataFile Version 2.0
generated by CFD-lab course output (written by Tobias Neckel) 
ASCII

DATASET STRUCTURED_GRID
DIMENSIONS  101 21 1 
POINTS 2121 float

0.000000 0.000000 0
0.100000 0.000000 0
0.200000 0.000000 0
0.300000 0.000000 0
0.400000 0.000000 0
0.500000 0.000000 0
0.600000 0.000000 0
0.700000 0.000000 0
0.800000 0.000000 0
0.900000 0.000000 0
1.000000 0.000000 0
1.100000 0.000000 0
1.200000 0.000000 0
1.300000 0.000000 0
1.400000 0.000000 0
1.500000 0.000000 0
1.600000 0.000000 0
1.700000 0.000000 0
1.800000 0.000000 0
1.900000 0.000000 0
2.000000 0.000000 0
2.100000 0.000000 0
2.200000 0.000000 0
2.300000 0.000000 0
2.400000 0.000000 0
2.500000 0.000000 0
2.600000 0.000000 0
2.700000 0.000000 0
2.800000 0.000000 0
2.900000 0.000000 0
3.000000 0.000000 0
3.100000 0.000000 0
3.200000 0.000000 0
3.300000 0.000000 0
3.400000 0.000000 0
3.500000 0.000000 0
3.600000 0.000000 0
3.700000 0.000000 0
3.800000 0.000000 0
3.900000 0.000000 0
4.000000 0.000000 0
4.100000 0.000000 0
4.200000 0.000000 0
4.300000 0.000000 0
4.400000 0.000000 0
4.500000 0.000000 0
4.600000 0.000000 0
4.700000 0.000000 0
4.800000 0.000000 0
4.900000 0.000000 0
5.000000 0.000000 0
5.100000 0.000000 0
5.200000 0.000000 0
5.300000 0.000000 0
5.400000 0.000000 0
5.500000 0.000000 0
5.600000 0.000000 0
5.700000 0.000000 0
5.800000 0.000000 0
5.900000 0.000000 0
6.000000 0.000000 0
6.100000 0.000000 0
6.200000 0.000000 0
6.300000 0.000000 0
6.400000 0.000000 0
6.500000 0.000000 0
6.600000 0.000000 0
6.700000 0.000000 0
6.800000 0.000000 0
6.900000 0.000000 0
7.000000 0.000000 0
7.100000 0.000000 0
7.200000 0.000000 0
7.300000 0.000000 0
7.400000 0.000000 0
7.500000 0.000000 0
7.600000 0.000000 0
7.700000 0.000000 0
7.800000 0.000000 0
7.900000 0.000000 0
8.000000 0.000000 0
8.100000 0.000000 0
8.200000 0.000000 0
8.300000 0.000000 0
8.400000 0.000000 0
8.500000 0.000000 0
8.600000 0.000000 0
8.700000 0.000000 0
8.800000 0.000000 0
8.900000 0.000000 0
9.000000 0.000000 0
9.100000 0.000000 0
9.200000 0.000000 0
9.300000 0.000000 0
9.400000 0.000000 0
9.500000 0.000000 0
9.600000 0.000000 0
9.700000 0.000000 0
9.800000 0.000000 0
9.900000 0.000000 0
10.000000 0.000000 0
0.000000 0.100000 0
0.100000 0.100000 0
0.200000 0.100000 0
0.300000 0.100000 0
0.400000 0.100000 0
0.500000 0.100000 0
0.600000 0.100000 0
0.700000 0.100000 0
0.800000 0.100000 0
0.900000 0.100000 0
1.000000 0.100000 0
1.100000 0.100000 0
1.200000 0.100000 0
1.300000 0.100000 0
1.400000 0.100000 0
1.500000 0.100000 0
1.600000 0.100000 0
1.700000 0.100000 0
1.800000 0.100000 0
1.900000 0.100000 0
2.000000 0.100000 0
2.100000 0.100000 0
2.200000 0.100000 0
2.300000 0.100000 0
2.400000 0.100000 0
2.500000 0.100000 0
2.600000 0.100000 0
2.700000 0.100000 0
2.800000 0.100000 0
2.900000 0.100000 0
3.000000 0.100000 0
3.100000 0.100000 0
3.200000 0.100000 0
3.300000 0.100000 0
3.400000 0.100000 0
3.500000 0.100000 0
3.600000 0.100000 0
3.700000 0.100000 0
3.800000 0.100000 0
3.900000 0.100000 0
4.000000 0.100000 0
4.100000 0.100000 0
4.200000 0.100000 0
4.300000 0.100000 0
4.400000 0.100000 0
4.500000 0.100000 0
4.600000 0.100000 0
4.700000 0.100000 0
4.800000 0.100000 0
4.900000 0.100000 0
5.000000 0.100000 0
5.100000 0.100000 0
5.200000 0.100000 0
5.300000 0.100000 0
5.400000 0.100000 0
5.500000 0.100000 0
5.600000 0.100000 0
5.700000 0.100000 0
5.800000 0.100000 0
5.900000 0.100000 0
6.000000 0.100000 0
6.100000 0.100000 0
6.200000 0.100000 0
6.300000 0.100000 0
6.400000 0.100000 0
6.500000 0.100000 0
6.600000 0.100000 0
6.700000 0.100000 0
6.800000 0.100000 0
6.900000 0.100000 0
7.000000 0.100000 0
7.100000 0.100000 0
7.200000 0.100000 0
7.300000 0.100000 0
7.400000 0.100000 0
7.500000 0.100000 0
7.600000 0.100000 0
7.700000 0.100000 0
7.800000 0.100000 0
7.900000 0.100000 0
8.000000 0.100000 0
8.100000 0.100000 0
8.200000 0.100000 0
8.300000 0.100000 0
8.400000 0.100000 0
8.500000 0.100000 0
8.600000 0.100000 0
8.700000 0.100000 0
8.800000 0.100000 0
8.900000 0.100000 0
9.000000 0.100000 0
9.100000 0.100000 0
9.200000 0.100000 0
9.300000 0.100000 0
9.400000 0.100000 0
9.500000 0.100000 0
9.600000 0.100000 0
9.700000 0.100000 0
9.800000 0.100000 0
9.900000 0.100000 0
10.000000 0.100000 0
0.000000 0.200000 0
0.100000 0.200000 0
0.200000 0.200000 0
0.300000 0.200000 0
0.400000 0.200000 0
0.500000 0.200000 0
0.600000 0.200000 0
0.700000 0.200000 0
0.800000 0.200000 0
0.900000 0.200000 0
1.000000 0.200000 0
1.100000 0.200000 0
1.200000 0.200000 0
1.300000 0.200000 0
1.400000 0.200000 0
1.500000 0.200000 0
1.600000 0.200000 0
1.700000 0.200000 0
1.800000 0.200000 0
1.900000 0.200000 0
2.000000 0.200000 0
2.100000 0.200000 0
2.200000 0.200000 0
2.300000 0.200000 0
2.400000 0.200000 0
2.500000 0.200000 0
2.600000 0.200000 0
2.700000 0.200000 0
2.800000 0.200000 0
2.900000 0.200000 0
3.000000 0.200000 0
3.100000 0.200000 0
3.200000 0.200000 0
3.300000 0.200000 0
3.400000 0.200000 0
3.500000 0.200000 0
3.600000 0.200000 0
3.700000 0.200000 0
3.800000 0.200000 0
3.900000 0.200000 0
4.000000 0.200000 0
4.100000 0.200000 0
4.200000 0.200000 0
4.300000 0.200000 0
4.400000 0.200000 0
4.500000 0.200000 0
4.600000 0.200000 0
4.700000 0.200000 0
4.800000 0.200000 0
4.900000 0.200000 0
5.000000 0.200000 0
5.100000 0.200000 0
5.200000 0.200000 0
5.300000 0.200000 0
5.400000 0.200000 0
5.500000 0.200000 0
5.600000 0.200000 0
5.700000 0.200000 0
5.800000 0.200000 0
5.900000 0.200000 0
6.000000 0.200000 0
6.100000 0.200000 0
6.200000 0.200000 0
6.300000 0.200000 0
6.400000 0.200000 0
6.500000 0.200000 0
6.600000 0.200000 0
6.700000 0.200000 0
6.800000 0.200000 0
6.900000 0.200000 0
7.000000 0.200000 0
7.100000 0.200000 0
7.200000 0.200000 0
7.300000 0.200000 0
7.400000 0.200000 0
7.500000 0.200000 0
7.600000 0.200000 0
7.700000 0.200000 0
7.800000 0.200000 0
7.900000 0.200000 0
8.000000 0.200000 0
8.100000 0.200000 0
8.200000 0.200000 0
8.300000 0.200000 0
8.400000 0.200000 0
8.500000 0.200000 0
8.600000 0.200000 0
8.700000 0.200000 0
8.800000 0.200000 0
8.900000 0.200000 0
9.000000 0.200000 0
9.100000 0.200000 0
9.200000 0.200000 0
9.300000 0.200000 0
9.400000 0.200000 0
9.500000 0.200000 0
9.600000 0.200000 0
9.700000 0.200000 0
9.800000 0.200000 0
9.900000 0.200000 0
10.000000 0.200000 0
0.000000 0.300000 0
0.100000 0.300000 0
0.200000 0.300000 0
0.300000 0.300000 0
0.400000 0.300000 0
0.500000 0.300000 0
0.600000 0.300000 0
0.700000 0.300000 0
0.800000 0.300000 0
0.900000 0.300000 0
1.000000 0.300000 0
1.100000 0.300000 0
1.200000 0.300000 0
1.300000 0.300000 0
1.400000 0.300000 0
1.500000 0.300000 0
1.600000 0.300000 0
1.700000 0.300000 0
1.800000 0.300000 0
1.900000 0.300000 0
2.000000 0.300000 0
2.100000 0.300000 0
2.200000 0.300000 0
2.300000 0.300000 0
2.400000 0.300000 0
2.500000 0.300000 0
2.600000 0.300000 0
2.700000 0.300000 0
2.800000 0.300000 0
2.900000 0.300000 0
3.000000 0.300000 0
3.100000 0.300000 0
3.200000 0.300000 0
3.300000 0.300000 0
3.400000 0.300000 0
3.500000 0.300000 0
3.600000 0.300000 0
3.700000 0.300000 0
3.800000 0.300000 0
3.900000 0.300000 0
4.000000 0.300000 0
4.100000 0.300000 0
4.200000 0.300000 0
4.300000 0.300000 0
4.400000 0.300000 0
4.500000 0.300000 0
4.600000 0.300000 0
4.700000 0.300000 0
4.800000 0.300000 0
4.900000 0.300000 0
5.000000 0.300000 0
5.100000 0.300000 0
5.200000 0.300000 0
5.300000 0.300000 0
5.400000 0.300000 0
5.500000 0.300000 0
5.600000 0.300000 0
5.700000 0.300000 0
5.800000 0.300000 0
5.900000 0.300000 0
6.000000 0.300000 0
6.100000 0.300000 0
6.200000 0.300000 0
6.300000 0.300000 0
6.400000 0.300000 0
6.500000 0.300000 0
6.600000 0.300000 0
6.700000 0.300000 0
6.800000 0.300000 0
6.900000 0.300000 0
7.000000 0.300000 0
7.100000 0.300000 0
7.200000 0.300000 0
7.300000 0.300000 0
7.400000 0.300000 0
7.500000 0.300000 0
7.600000 0.300000 0
7.700000 0.300000 0
7.800000 0.300000 0
7.900000 0.300000 0
8.000000 0.300000 0
8.100000 0.300000 0
8.200000 0.300000 0
8.300000 0.300000 0
8.400000 0.300000 0
8.500000 0.300000 0
8.600000 0.300000 0
8.700000 0.300000 0
8.800000 0.300000 0
8.900000 0.300000 0
9.000000 0.300000 0
9.100000 0.300000 0
9.200000 0.300000 0
9.300000 0.300000 0
9.400000 0.300000 0
9.500000 0.300000 0
9.600000 0.300000 0
9.700000 0.300000 0
9.800000 0.300000 0
9.900000 0.300000 0
10.000000 0.300000 0
0.000000 0.400000 0
0.100000 0.400000 0
0.200000 0.400000 0
0.300000 0.400000 0
0.400000 0.400000 0
0.500000 0.400000 0
0.600000 0.400000 0
0.700000 0.400000 0
0.800000 0.400000 0
0.900000 0.400000 0
1.000000 0.400000 0
1.100000 0.400000 0
1.200000 0.400000 0
1.300000 0.400000 0
1.400000 0.400000 0
1.500000 0.400000 0
1.600000 0.400000 0
1.700000 0.400000 0
1.800000 0.400000 0
1.900000 0.400000 0
2.000000 0.400000 0
2.100000 0.400000 0
2.200000 0.400000 0
2.300000 0.400000 0
2.400000 0.400000 0
2.500000 0.400000 0
2.600000 0.400000 0
2.700000 0.400000 0
2.800000 0.400000 0
2.900000 0.400000 0
3.000000 0.400000 0
3.100000 0.400000 0
3.200000 0.400000 0
3.300000 0.400000 0
3.400000 0.400000 0
3.500000 0.400000 0
3.600000 0.400000 0
3.700000 0.400000 0
3.800000 0.400000 0
3.900000 0.400000 0
4.000000 0.400000 0
4.100000 0.400000 0
4.200000 0.400000 0
4.300000 0.400000 0
4.400000 0.400000 0
4.500000 0.400000 0
4.600000 0.400000 0
4.700000 0.400000 0
4.800000 0.400000 0
4.900000 0.400000 0
5.000000 0.400000 0
5.100000 0.400000 0
5.200000 0.400000 0
5.300000 0.400000 0
5.400000 0.400000 0
5.500000 0.400000 0
5.600000 0.400000 0
5.700000 0.400000 0
5.800000 0.400000 0
5.900000 0.400000 0
6.000000 0.400000 0
6.100000 0.400000 0
6.200000 0.400000 0
6.300000 0.400000 0
6.400000 0.400000 0
6.500000 0.400000 0
6.600000 0.400000 0
6.700000 0.400000 0
6.800000 0.400000 0
6.900000 0.400000 0
7.000000 0.400000 0
7.100000 0.400000 0
7.200000 0.400000 0
7.300000 0.400000 0
7.400000 0.400000 0
7.500000 0.400000 0
7.600000 0.400000 0
7.700000 0.400000 0
7.800000 0.400000 0
7.900000 0.400000 0
8.000000 0.400000 0
8.100000 0.400000 0
8.200000 0.400000 0
8.300000 0.400000 0
8.400000 0.400000 0
8.500000 0.400000 0
8.600000 0.400000 0
[...]
POINT_DATA 2121 

VECTORS velocity float
0.500000 0.000000 0
0.000005 0.000000 0
0.000005 0.000000 0
0.000001 0.000000 0
-0.000010 0.000000 0
-0.000028 0.000000 0
-0.000056 0.000000 0
-0.000096 0.000000 0
-0.000150 0.000000 0
-0.000215 0.000000 0
-0.000289 0.000000 0
-0.000364 0.000000 0
-0.000428 0.000000 0
-0.000459 0.000000 0
-0.000434 0.000000 0
-0.000325 0.000000 0
-0.000116 0.000000 0
0.000186 0.000000 0
0.000559 0.000000 0
0.000964 0.000000 0
0.001355 0.000000 0
0.001688 0.000000 0
0.001926 0.000000 0
0.002038 0.000000 0
0.002002 0.000000 0
0.001807 0.000000 0
0.001445 0.000000 0
0.000918 0.000000 0
0.000233 0.000000 0
-0.000601 0.000000 0
-0.001567 0.000000 0
-0.002600 0.000000 0
-0.003587 0.000000 0
-0.004371 0.000000 0
-0.004773 0.000000 0
-0.004652 0.000000 0
-0.003970 0.000000 0
-0.002826 0.000000 0
-0.001430 0.000000 0
-0.000011 0.000000 0
0.001303 0.000000 0
0.002428 0.000000 0
0.003315 0.000000 0
0.003949 0.000000 0
0.004334 0.000000 0
0.004486 0.000000 0
0.004424 0.000000 0
0.004164 0.000000 0
0.003717 0.000000 0
0.003087 0.000000 0
0.002272 0.000000 0
0.001264 0.000000 0
0.000069 0.000000 0
-0.001245 0.000000 0
-0.002606 0.000000 0
-0.003945 0.000000 0
-0.005181 0.000000 0
-0.006219 0.000000 0
-0.006948 0.000000 0
-0.007233 0.000000 0
-0.006939 0.000000 0
-0.005982 0.000000 0
-0.004399 0.000000 0
-0.002400 0.000000 0
-0.000326 0.000000 0
0.001583 0.000000 0
0.003231 0.000000 0
0.004525 0.000000 0
0.005401 0.000000 0
0.005835 0.000000 0
0.005843 0.000000 0
0.005482 0.000000 0
0.004829 0.000000 0
0.003970 0.000000 0
0.002979 0.000000 0
0.001915 0.000000 0
0.000820 0.000000 0
-0.000268 0.000000 0
-0.001322 0.000000 0
-0.002345 0.000000 0
-0.003343 0.000000 0
-0.004309 0.000000 0
-0.005211 0.000000 0
-0.005988 0.000000 0
-0.006569 0.000000 0
-0.006883 0.000000 0
-0.006875 0.000000 0
-0.006516 0.000000 0
-0.005798 0.000000 0
-0.004737 0.000000 0
-0.003375 0.000000 0
-0.001797 0.000000 0
-0.000135 0.000000 0
0.001466 0.000000 0
0.002963 0.000000 0
0.004285 0.000000 0
0.005352 0.000000 0
0.006099 0.000000 0
0.006499 0.000000 0
0.006573 0.000000 0
0.006494 0.000000 0
1.000000 0.000002 0
1.001583 -0.005078 0
1.009145 -0.010633 0
1.022492 -0.016581 0
1.042058 -0.022803 0
1.068149 -0.028976 0
1.100638 -0.034482 0
1.138559 -0.038453 0
1.179822 -0.040002 0
1.221099 -0.038798 0
1.259358 -0.035365 0
1.292779 -0.030632 0
1.320705 -0.025429 0
1.343204 -0.020248 0
1.360616 -0.015240 0
1.373202 -0.010313 0
1.380962 -0.005299 0
1.383654 -0.000108 0
1.380992 0.005210 0
1.372840 0.010466 0
1.359360 0.015370 0
1.341071 0.019610 0
1.318825 0.022904 0
1.293730 0.025038 0
1.267071 0.025871 0
1.240236 0.025328 0
1.214647 0.023395 0
1.191706 0.020100 0
1.172759 0.015499 0
1.159075 0.009658 0
1.151828 0.002702 0
1.152024 -0.004991 0
1.160277 -0.012686 0
1.176382 -0.019354 0
1.198885 -0.023805 0
1.224970 -0.025022 0
1.250813 -0.022573 0
1.272407 -0.016865 0
1.286578 -0.009046 0
1.291713 -0.000485 0
1.287724 0.007789 0
1.275419 0.015137 0
1.256119 0.021164 0
1.231392 0.025680 0
1.202863 0.028647 0
1.172102 0.030116 0
1.140580 0.030175 0
1.109655 0.028913 0
1.080591 0.026399 0
1.054581 0.022665 0
1.032766 0.017704 0
1.016232 0.011497 0
1.005973 0.004132 0
1.002819 -0.004025 0
1.007340 -0.012452 0
1.019717 -0.020662 0
1.039691 -0.028149 0
1.066574 -0.034377 0
1.099259 -0.038751 0
1.136109 -0.040595 0
1.174780 -0.039238 0
1.212176 -0.034250 0
1.244679 -0.025797 0
1.268725 -0.014900 0
1.281630 -0.003236 0
1.282435 0.007779 0
1.272042 0.017400 0
1.252126 0.025131 0
1.224835 0.030587 0
1.192602 0.033576 0
1.157936 0.034130 0
1.123215 0.032482 0
1.090520 0.029016 0
1.061527 0.024181 0
1.037456 0.018409 0
1.019079 0.012072 0
1.006761 0.005468 0
1.000546 -0.001132 0
1.000326 -0.007530 0
1.006001 -0.013662 0
1.017508 -0.019538 0
1.034815 -0.025121 0
1.057807 -0.030258 0
1.086086 -0.034658 0
1.118829 -0.037951 0
1.154753 -0.039774 0
1.192216 -0.039857 0
1.229374 -0.038064 0
1.264349 -0.034398 0
1.295372 -0.028998 0
1.320900 -0.022151 0
1.339708 -0.014337 0
1.350997 -0.006252 0
1.354536 0.001383 0
1.350791 0.008110 0
1.340782 0.013579 0
1.325986 0.017363 0
1.308251 0.019078 0
1.289667 0.018453 0
1.272351 0.014961 0
1.259528 0.012308 0
1.000000 -0.000000 0
1.001942 -0.010653 0
1.009815 -0.021860 0
1.023489 -0.033864 0
1.043656 -0.046608 0
1.071062 -0.059530 0
1.106125 -0.071361 0
1.148262 -0.080135 0
1.195323 -0.083491 0
1.241867 -0.080487 0
1.283565 -0.072630 0
1.318651 -0.062298 0
1.347099 -0.051376 0
1.369659 -0.040861 0
1.387207 -0.030949 0
1.400307 -0.021298 0
1.408951 -0.011403 0
1.412631 -0.000981 0
1.410770 0.009864 0
1.403013 0.020682 0
1.389435 0.030818 0
1.370590 0.039584 0
1.347425 0.046391 0
1.321159 0.050803 0
1.293180 0.052542 0
1.264957 0.051473 0
1.237973 0.047579 0
1.213662 0.040937 0
1.193374 0.031680 0
1.178367 0.019981 0
1.169853 0.006101 0
1.169049 -0.009401 0
1.177002 -0.025309 0
1.193936 -0.039559 0
1.218668 -0.049539 0
1.248420 -0.052879 0
1.279059 -0.048388 0
1.305759 -0.036716 0
1.324194 -0.020256 0
1.331943 -0.002096 0
1.329061 0.015343 0
1.316867 0.030653 0
1.297108 0.043076 0
1.271646 0.052306 0
1.242274 0.058339 0
1.210626 0.061332 0
1.178160 0.061497 0
1.146182 0.059039 0
1.115871 0.054123 0
1.088312 0.046874 0
1.064490 0.037398 0
1.045262 0.025842 0
1.031304 0.012462 0
1.023097 -0.002318 0
1.021024 -0.017849 0
1.025286 -0.033302 0
1.035900 -0.047807 0
1.052859 -0.060519 0
1.076138 -0.070487 0
1.105363 -0.076472 0
1.139354 -0.077018 0
1.175885 -0.070849 0
1.211733 -0.057500 0
1.242995 -0.037903 0
1.265644 -0.014661 0
1.276555 0.008638 0
1.275196 0.029358 0
1.262996 0.046256 0
1.241953 0.058572 0
1.214389 0.065948 0
1.182729 0.068436 0
1.149323 0.066465 0
1.116305 0.060737 0
1.085475 0.052113 0
1.058218 0.041497 0
1.035436 0.029744 0
1.017553 0.017583 0
1.004635 0.005483 0
0.996667 -0.006407 0
0.993821 -0.018133 0
0.996555 -0.029765 0
1.005405 -0.041250 0
1.020724 -0.052222 0
1.042351 -0.061973 0
1.069472 -0.069617 0
1.100687 -0.074339 0
1.134218 -0.075573 0
1.168143 -0.073084 0
1.200594 -0.066949 0
1.229907 -0.057502 0
1.254698 -0.045287 0
1.273891 -0.031048 0
1.286712 -0.015779 0
1.292706 -0.000745 0
1.291964 0.012803 0
1.285330 0.023854 0
1.274147 0.031580 0
1.260069 0.035367 0
1.244882 0.034949 0
1.230269 0.029187 0
1.218788 0.024639 0
1.000000 -0.000001 0
1.001623 -0.015844 0
1.008739 -0.032574 0
1.021473 -0.050815 0
1.041005 -0.070769 0
1.068916 -0.091838 0
1.106818 -0.112076 0
1.155246 -0.128045 0
1.213035 -0.134000 0
1.268087 -0.127433 0
1.313587 -0.112542 0
1.348877 -0.094560 0
1.375649 -0.076830 0
1.396039 -0.060750 0
1.411934 -0.046281 0
1.424503 -0.032450 0
1.433759 -0.018017 0
1.438550 -0.002321 0
1.437479 0.014435 0
1.429726 0.031408 0
1.415211 0.047400 0
1.394588 0.061226 0
1.369007 0.071941 0
1.339894 0.078890 0
1.308810 0.081679 0
1.277370 0.080141 0
1.247167 0.074296 0
1.219700 0.064306 0
1.196325 0.050400 0
1.178254 0.032785 0
1.166641 0.011627 0
1.162761 -0.012533 0
1.168009 -0.037967 0
1.183038 -0.061414 0
1.207151 -0.078682 0
1.238356 -0.085807 0
1.273312 -0.080305 0
1.307125 -0.062394 0
1.333853 -0.035623 0
1.348422 -0.005745 0
1.349348 0.022471 0
1.338715 0.046697 0
1.319092 0.065992 0
1.292954 0.080120 0
1.262481 0.089273 0
1.229501 0.093836 0
1.195526 0.094225 0
1.161827 0.090809 0
1.129503 0.083875 0
1.099528 0.073653 0
1.072747 0.060360 0
1.049813 0.044290 0
1.031061 0.025904 0
1.016425 0.005861 0
1.005578 -0.015035 0
0.998503 -0.035931 0
0.995917 -0.056116 0
0.999180 -0.075008 0
1.009944 -0.091648 0
1.029166 -0.104205 0
1.056409 -0.110154 0
1.089799 -0.107022 0
1.126368 -0.093300 0
1.162417 -0.069204 0
1.193816 -0.037190 0
1.216403 -0.002168 0
1.227170 0.030566 0
1.226365 0.057981 0
1.215462 0.078801 0
1.196424 0.092407 0
1.171433 0.098802 0
1.142693 0.098512 0
1.112282 0.092470 0
1.082030 0.081874 0
1.053383 0.068055 0
1.027320 0.052344 0
1.004382 0.035876 0
0.984887 0.019360 0
0.969241 0.002890 0
0.958180 -0.013944 0
0.952920 -0.031516 0
0.954701 -0.049683 0
0.964152 -0.067597 0
0.980968 -0.083799 0
1.003993 -0.096680 0
1.031501 -0.104914 0
1.061502 -0.107707 0
1.091982 -0.104834 0
1.121091 -0.096556 0
1.147263 -0.083495 0
1.169274 -0.066529 0
1.186258 -0.046744 0
1.197700 -0.025460 0
1.203406 -0.004263 0
1.203515 0.015092 0
1.198750 0.031003 0
1.190275 0.042230 0
1.179507 0.047949 0
1.167947 0.047860 0
1.157000 0.040662 0
1.147711 0.034941 0
1.000000 -0.000003 0
1.001115 -0.020342 0
1.006790 -0.042103 0
1.017405 -0.066524 0
1.034728 -0.094444 0
1.061547 -0.125736 0
1.101654 -0.158084 0
1.158428 -0.186745 0
1.236184 -0.196726 0
1.302057 -0.181433 0
1.347697 -0.153813 0
1.377812 -0.124752 0
1.397719 -0.098931 0
1.411496 -0.077540 0
1.422390 -0.059807 0
1.432654 -0.043516 0
1.442678 -0.025843 0
1.450261 -0.005094 0
1.451774 0.018294 0
1.445311 0.042557 0
1.430583 0.065563 0
1.408483 0.085394 0
1.380493 0.100692 0
1.348303 0.110608 0
1.313681 0.114673 0
1.278418 0.112723 0
1.244262 0.104856 0
1.212813 0.091386 0
1.185406 0.072733 0
1.163063 0.049271 0
1.146447 0.021200 0
1.135824 -0.011162 0
1.131946 -0.045979 0
1.136221 -0.079094 0
1.149450 -0.105251 0
1.172322 -0.119434 0
1.204522 -0.117551 0
1.243156 -0.097650 0
1.281992 -0.061946 0
1.312429 -0.017985 0
1.327155 0.024656 0
1.326212 0.060516 0
1.313183 0.088444 0
1.291337 0.108523 0
1.263440 0.121399 0
1.231729 0.127893 0
1.197993 0.128777 0
1.163681 0.124668 0
1.129994 0.116029 0
1.097941 0.103236 0
1.068281 0.086719 0
1.041339 0.067135 0
1.016773 0.045457 0
0.993616 0.022771 0
0.970932 -0.000320 0
0.949019 -0.024034 0
0.930584 -0.048878 0
0.919941 -0.074939 0
0.920350 -0.100866 0
0.932615 -0.123331 0
0.955413 -0.138044 0
0.986238 -0.141202 0
1.022074 -0.130511 0
1.059705 -0.105744 0
1.095779 -0.069040 0
1.126745 -0.025110 0
1.148707 0.019002 0
1.159665 0.057570 0
1.160179 0.088120 0
1.151569 0.109583 0
1.135553 0.121774 0
1.114003 0.125222 0
1.088758 0.121006 0
1.061443 0.110619 0
1.033328 0.095813 0
1.005286 0.078351 0
0.978000 0.059622 0
0.952387 0.040231 0
0.929951 0.019906 0
0.912644 -0.002206 0
0.902300 -0.026679 0
0.900239 -0.052875 0
0.906662 -0.078883 0
0.920690 -0.102207 0
0.940766 -0.120545 0
0.965006 -0.132242 0
0.991434 -0.136447 0
1.018127 -0.133067 0
1.043357 -0.122625 0
1.065695 -0.106078 0
1.084080 -0.084675 0
1.097838 -0.059868 0
1.106670 -0.033321 0
1.110636 -0.006953 0
1.110143 0.017066 0
1.105988 0.036701 0
1.099242 0.050429 0
1.091107 0.057301 0
1.082754 0.057062 0
1.075136 0.049030 0
1.067827 0.042883 0
1.000000 -0.000004 0
1.000298 -0.023585 0
1.003522 -0.049258 0
1.010136 -0.079146 0
1.022300 -0.115305 0
1.044037 -0.159157 0
1.082310 -0.209349 0
1.146701 -0.262968 0
1.259461 -0.278023 0
1.329696 -0.239340 0
1.360798 -0.188690 0
1.373374 -0.144975 0
1.377114 -0.110907 0
1.376776 -0.085814 0
1.376402 -0.067833 0
1.379834 -0.053132 0
1.389152 -0.036018 0
1.402105 -0.011810 0
1.410839 0.018992 0
1.409720 0.052205 0
1.398287 0.083834 0
1.378017 0.110923 0
1.350779 0.131728 0
1.318363 0.145308 0
1.282553 0.151171 0
1.245200 0.149167 0
1.208159 0.139508 0
1.173070 0.122768 0
1.141063 0.099757 0
1.112621 0.071351 0
1.087614 0.038472 0
1.064855 0.001574 0
1.042220 -0.038758 0
1.021922 -0.079311 0
1.010766 -0.115176 0
1.015102 -0.141271 0
1.037612 -0.151533 0
1.076434 -0.140257 0
1.125817 -0.105289 0
1.176680 -0.051301 0
1.217657 0.008294 0
1.240198 0.060275 0
1.246377 0.100474 0
1.239906 0.129470 0
1.223920 0.148487 0
1.201012 0.158889 0
1.173340 0.161880 0
1.142710 0.158414 0
1.110635 0.149221 0
1.078288 0.134972 0
1.046258 0.116568 0
1.014150 0.095404 0
0.980556 0.073234 0
0.944245 0.051309 0
0.906255 0.029168 0
0.870801 0.004023 0
0.843655 -0.027431 0
0.829610 -0.065167 0
0.829817 -0.104716 0
0.842382 -0.139662 0
0.864524 -0.164169 0
0.893634 -0.174077 0
0.927359 -0.167162 0
0.963409 -0.143302 0
0.999451 -0.104624 0
1.033024 -0.055489 0
1.061269 -0.002747 0
1.080787 0.046115 0
1.090799 0.086503 0
1.091740 0.116640 0
1.084630 0.135973 0
1.070768 0.144913 0
1.051484 0.144637 0
1.027944 0.136910 0
1.001064 0.123818 0
0.971687 0.107278 0
0.941037 0.088381 0
0.911177 0.067015 0
0.884957 0.042239 0
0.865265 0.013313 0
0.853893 -0.019504 0
0.851198 -0.054438 0
0.856467 -0.088442 0
0.868361 -0.118297 0
0.885317 -0.141390 0
0.905705 -0.155976 0
0.927854 -0.161221 0
0.950097 -0.157151 0
0.970884 -0.144518 0
0.988919 -0.124612 0
1.003273 -0.099065 0
1.013439 -0.069728 0
1.019330 -0.038652 0
1.021244 -0.008130 0
1.019790 0.019347 0
1.015745 0.041511 0
1.009961 0.056718 0
1.003259 0.064043 0
0.996304 0.063437 0
0.989515 0.055195 0
0.982917 0.049269 0
1.000000 -0.000005 0
0.999131 -0.024814 0
0.998739 -0.052334 0
0.998972 -0.085695 0
1.001629 -0.128739 0
1.010903 -0.186140 0
1.036317 -0.261142 0
1.097332 -0.364290 0
1.257749 -0.380114 0
1.303048 -0.283163 0
1.288080 -0.197885 0
1.266651 -0.141461 0
1.245228 -0.102726 0
1.223647 -0.077222 0
1.204245 -0.063258 0
1.192346 -0.056659 0
1.194134 -0.048508 0
1.212139 -0.027175 0
1.238018 0.010286 0
1.253351 0.054715 0
1.255210 0.096872 0
1.246766 0.132509 0
1.229973 0.159954 0
1.206076 0.178440 0
1.176372 0.187442 0
1.142528 0.186724 0
1.106486 0.176592 0
1.069797 0.158088 0
1.032283 0.132789 0
0.991222 0.102327 0
0.943538 0.068572 0
0.890363 0.033838 0
0.838338 -0.003440 0
0.796720 -0.048034 0
0.775722 -0.098824 0
0.778618 -0.146673 0
0.803220 -0.179277 0
0.845771 -0.186249 0
0.901867 -0.162586 0
0.965921 -0.110219 0
1.029989 -0.039256 0
1.082229 0.031403 0
1.115529 0.088343 0
1.132694 0.130586 0
1.136584 0.159898 0
1.129685 0.178080 0
1.114224 0.186686 0
1.092164 0.186979 0
1.065078 0.180058 0
1.033855 0.167219 0
0.998331 0.150463 0
0.957448 0.132443 0
0.910767 0.114968 0
0.860901 0.096679 0
0.814441 0.072730 0
0.779383 0.038173 0
0.760449 -0.008080 0
0.756895 -0.061495 0
0.764807 -0.114032 0
0.780467 -0.158431 0
0.801608 -0.189690 0
0.827083 -0.204432 0
0.856088 -0.200680 0
0.887578 -0.178229 0
0.920102 -0.139049 0
0.951914 -0.087321 0
0.981044 -0.029154 0
1.004650 0.027646 0
1.020602 0.076773 0
1.028448 0.115359 0
1.028415 0.142353 0
1.021076 0.157974 0
1.007098 0.163437 0
0.987125 0.160646 0
0.961872 0.151676 0
0.932537 0.137985 0
0.901258 0.119739 0
0.871163 0.095918 0
0.845662 0.065424 0
0.827352 0.028465 0
0.817278 -0.013006 0
0.814852 -0.055843 0
0.818817 -0.096439 0
0.827845 -0.131451 0
0.840719 -0.158283 0
0.856274 -0.175172 0
0.873284 -0.181232 0
0.890423 -0.176491 0
0.906350 -0.161840 0
0.919892 -0.138861 0
0.930207 -0.109588 0
0.936897 -0.076318 0
0.940005 -0.041520 0
0.939931 -0.007807 0
0.937274 0.022172 0
0.932614 0.046136 0
0.926441 0.062522 0
0.919127 0.070565 0
0.910994 0.070412 0
0.902475 0.062022 0
0.895597 0.055951 0
1.000000 -0.000007 0
0.997724 -0.023275 0
0.992855 -0.049491 0
0.984673 -0.082430 0
0.973275 -0.127629 0
0.960081 -0.194237 0
0.951264 -0.296171 0
0.968579 -0.484794 0
1.123947 -0.484133 0
1.108718 -0.270065 0
1.003104 -0.152686 0
0.943267 -0.102516 0
0.900635 -0.068297 0
0.860593 -0.045225 0
0.818814 -0.036925 0
0.785071 -0.043414 0
0.774998 -0.056205 0
0.798999 -0.056087 0
0.852244 -0.022614 0
0.911052 0.034620 0
0.951145 0.090027 0
0.974798 0.135766 0
0.985698 0.172024 0
0.984064 0.198516 0
0.970212 0.214326 0
0.944761 0.218659 0
0.908046 0.211845 0
0.859704 0.196578 0
0.799465 0.177939 0
0.729552 0.159703 0
0.656954 0.138938 0
0.593443 0.106380 0
0.552048 0.054491 0
0.538214 -0.017088 0
0.546581 -0.097467 0
0.569920 -0.169164 0
0.604167 -0.219080 0
0.648447 -0.239297 0
0.702855 -0.225832 0
0.766328 -0.179817 0
0.835587 -0.108408 0
0.903978 -0.025658 0
0.959561 0.049615 0
0.998047 0.108021 0
1.021367 0.151104 0
1.031265 0.180855 0
1.029441 0.199007 0
1.017410 0.207167 0
0.996184 0.207137 0
0.965969 0.201326 0
0.926442 0.192582 0
0.878312 0.182576 0
0.825677 0.169388 0
0.776607 0.147241 0
0.739950 0.110293 0
0.720544 0.057621 0
0.717375 -0.005337 0
0.725033 -0.069920 0
0.738000 -0.128681 0
0.753332 -0.176856 0
0.770203 -0.211179 0
0.788994 -0.228950 0
0.810401 -0.228050 0
0.834657 -0.207710 0
0.861158 -0.169354 0
0.888590 -0.116824 0
0.915274 -0.055876 0
0.939206 0.006163 0
0.957700 0.062311 0
0.969536 0.108433 0
0.974204 0.142953 0
0.971585 0.165837 0
0.961766 0.178194 0
0.945080 0.181742 0
0.922387 0.178013 0
0.895487 0.167499 0
0.867239 0.149361 0
0.841020 0.122218 0
0.819703 0.085657 0
0.804840 0.041304 0
0.796585 -0.007398 0
0.794071 -0.056371 0
0.796065 -0.101828 0
0.801494 -0.140592 0
0.809525 -0.170212 0
0.819459 -0.188935 0
0.830567 -0.195763 0
0.841957 -0.190611 0
0.852596 -0.174380 0
0.861469 -0.148862 0
0.867797 -0.116464 0
0.871185 -0.079919 0
0.871639 -0.042080 0
0.869476 -0.005793 0
0.865160 0.026270 0
0.859048 0.051950 0
0.851375 0.069811 0
0.842384 0.079097 0
0.832553 0.079696 0
0.822883 0.070198 0
0.816236 0.062974 0
1.000000 -0.000008 0
0.996370 -0.018620 0
0.987123 -0.039677 0
0.970332 -0.066509 0
0.943317 -0.104541 0
0.901255 -0.164522 0
0.835291 -0.270033 0
0.729766 -0.537367 0
0.544311 -0.520645 0
0.000331 -0.162713 0
0.393668 -0.032827 0
0.321858 -0.039386 0
0.302328 -0.020446 0
0.290876 0.004206 0
0.271160 0.011870 0
0.254090 -0.013237 0
0.258659 -0.062829 0
0.297033 -0.104814 0
0.369541 -0.102161 0
0.465651 -0.044580 0
0.556049 0.032732 0
0.621630 0.097563 0
0.665514 0.150294 0
0.688854 0.193533 0
0.691300 0.226352 0
0.672588 0.248497 0
0.632802 0.261256 0
0.574032 0.266276 0
0.503492 0.262547 0
0.435250 0.244444 0
0.386203 0.204287 0
0.367414 0.138351 0
0.378552 0.051396 0
0.408885 -0.042961 0
0.442915 -0.130923 0
0.474141 -0.204652 0
0.503666 -0.258197 0
0.535912 -0.285329 0
0.575772 -0.280861 0
0.626113 -0.243345 0
0.686254 -0.177298 0
0.752241 -0.092964 0
0.816292 -0.006119 0
0.867506 0.068387 0
0.903861 0.126287 0
0.926002 0.169612 0
0.934691 0.200147 0
0.930586 0.219843 0
0.914055 0.231105 0
0.885448 0.236568 0
0.846334 0.237727 0
0.801310 0.232815 0
0.758412 0.216279 0
0.726332 0.182012 0
0.709978 0.128399 0
0.708503 0.060354 0
0.717284 -0.012962 0
0.730624 -0.082514 0
0.744510 -0.142725 0
0.757017 -0.191028 0
0.767932 -0.225745 0
0.778360 -0.245022 0
0.790113 -0.246736 0
0.804796 -0.229379 0
0.822967 -0.193375 0
0.843914 -0.141831 0
0.866080 -0.080164 0
0.887595 -0.015174 0
0.905958 0.046050 0
0.919280 0.098460 0
0.926480 0.139911 0
0.926929 0.170019 0
0.920385 0.189548 0
0.907161 0.199631 0
0.888445 0.200875 0
0.866467 0.192739 0
0.844171 0.173812 0
0.824358 0.143060 0
0.808834 0.101211 0
0.798142 0.051189 0
0.791918 -0.002630 0
0.789337 -0.055716 0
0.789390 -0.104255 0
0.791224 -0.145304 0
0.794272 -0.176642 0
0.798213 -0.196607 0
0.802825 -0.204123 0
0.807774 -0.198914 0
0.812488 -0.181746 0
0.816230 -0.154456 0
0.818307 -0.119698 0
0.818276 -0.080555 0
0.816026 -0.040205 0
0.811730 -0.001722 0
0.805733 0.032205 0
0.798265 0.059527 0
0.789558 0.078793 0
0.780033 0.088994 0
0.770469 0.089518 0
0.762094 0.077946 0
0.756804 0.069053 0
1.000000 -0.000009 0
0.995462 -0.011348 0
0.983277 -0.023847 0
0.960696 -0.039018 0
0.923120 -0.058945 0
0.861358 -0.086605 0
0.755865 -0.125076 0
0.563622 -0.194207 0
0.074177 0.000194 0
-0.527631 0.120882 0
0.000000 -0.000046 0
-0.033263 -0.022421 0
-0.051100 -0.037709 0
-0.072749 -0.014450 0
-0.096661 -0.000532 0
-0.108039 -0.031307 0
-0.093652 -0.099541 0
-0.055196 -0.167363 0
0.006241 -0.191625 0
0.095878 -0.152282 0
0.203105 -0.066346 0
0.293292 0.025908 0
0.357861 0.104406 0
0.397615 0.172337 0
0.412919 0.230198 0
0.404858 0.276764 0
0.377321 0.310008 0
0.339270 0.325494 0
0.304778 0.316328 0
0.288549 0.276598 0
0.298847 0.206380 0
0.333531 0.113638 0
0.381486 0.012627 0
0.426299 -0.081844 0
0.460972 -0.163117 0
0.484413 -0.230309 0
0.498935 -0.281244 0
0.510004 -0.311796 0
0.525141 -0.316427 0
0.551284 -0.290693 0
0.591541 -0.234929 0
0.643774 -0.156089 0
0.701975 -0.066043 0
0.756268 0.020058 0
0.798319 0.092213 0
0.826870 0.149632 0
0.841685 0.194030 0
0.842787 0.227409 0
0.830618 0.251882 0
0.806888 0.268653 0
0.775824 0.276326 0
0.744555 0.270104 0
0.721140 0.243972 0
0.710849 0.195281 0
0.713902 0.127728 0
0.726619 0.049922 0
0.744015 -0.027851 0
0.761265 -0.097539 0
0.775582 -0.155467 0
0.785546 -0.200672 0
0.791001 -0.232916 0
0.793166 -0.251525 0