# vtk DataFile Version 2.0
generated by CFD-lab course output (written by Tobias Neckel) 
ASCII

DATASET STRUCTURED_GRID
DIMENSIONS  101 21 1 
POINTS 2121 float

0.000000 0.000000 0
0.100000 0.000000 0
0.200000 0.000000 0
0.300000 0.000000 0
0.400000 0.000000 0
0.500000 0.000000 0
0.600000 0.000000 0
0.700000 0.000000 0
0.800000 0.000000 0
0.900000 0.000000 0
1.000000 0.000000 0
1.100000 0.000000 0
1.200000 0.000000 0
1.300000 0.000000 0
1.400000 0.000000 0
1.500000 0.000000 0
1.600000 0.000000 0
1.700000 0.000000 0
1.800000 0.000000 0
1.900000 0.000000 0
2.000000 0.000000 0
2.100000 0.000000 0
2.200000 0.000000 0
2.300000 0.000000 0
2.400000 0.000000 0
2.500000 0.000000 0
2.600000 0.000000 0
2.700000 0.000000 0
2.800000 0.000000 0
2.900000 0.000000 0
3.000000 0.000000 0
3.100000 0.000000 0
3.200000 0.000000 0
3.300000 0.000000 0
3.400000 0.000000 0
3.500000 0.000000 0
3.600000 0.000000 0
3.700000 0.000000 0
3.800000 0.000000 0
3.900000 0.000000 0
4.000000 0.000000 0
4.100000 0.000000 0
4.200000 0.000000 0
4.300000 0.000000 0
4.400000 0.000000 0
4.500000 0.000000 0
4.600000 0.000000 0
4.700000 0.000000 0
4.800000 0.000000 0
4.900000 0.000000 0
5.000000 0.000000 0
5.100000 0.000000 0
5.200000 0.000000 0
5.300000 0.000000 0
5.400000 0.000000 0
5.500000 0.000000 0
5.600000 0.000000 0
5.700000 0.000000 0
5.800000 0.000000 0
5.900000 0.000000 0
6.000000 0.000000 0
6.100000 0.000000 0
6.200000 0.000000 0
6.300000 0.000000 0
6.400000 0.000000 0
6.500000 0.000000 0
6.600000 0.000000 0
6.700000 0.000000 0
6.800000 0.000000 0
6.900000 0.000000 0
7.000000 0.000000 0
7.100000 0.000000 0
7.200000 0.000000 0
7.300000 0.000000 0
7.400000 0.000000 0
7.500000 0.000000 0
7.600000 0.000000 0
7.700000 0.000000 0
7.800000 0.000000 0
7.900000 0.000000 0
8.000000 0.000000 0
8.100000 0.000000 0
8.200000 0.000000 0
8.300000 0.000000 0
8.400000 0.000000 0
8.500000 0.000000 0
8.600000 0.000000 0
8.700000 0.000000 0
8.800000 0.000000 0
8.900000 0.000000 0
9.000000 0.000000 0
9.100000 0.000000 0
9.200000 0.000000 0
9.300000 0.000000 0
9.400000 0.000000 0
9.500000 0.000000 0
9.600000 0.000000 0
9.700000 0.000000 0
9.800000 0.000000 0
9.900000 0.000000 0
10.000000 0.000000 0
0.000000 0.100000 0
0.100000 0.100000 0
0.200000 0.100000 0
0.300000 0.100000 0
0.400000 0.100000 0
0.500000 0.100000 0
0.600000 0.100000 0
0.700000 0.100000 0
0.800000 0.100000 0
0.900000 0.100000 0
1.000000 0.100000 0
1.100000 0.100000 0
1.200000 0.100000 0
1.300000 0.100000 0
1.400000 0.100000 0
1.500000 0.100000 0
1.600000 0.100000 0
1.700000 0.100000 0
1.800000 0.100000 0
1.900000 0.100000 0
2.000000 0.100000 0
2.100000 0.100000 0
2.200000 0.100000 0
2.300000 0.100000 0
2.400000 0.100000 0
2.500000 0.100000 0
2.600000 0.100000 0
2.700000 0.100000 0
2.800000 0.100000 0
2.900000 0.100000 0
3.000000 0.100000 0
3.100000 0.100000 0
3.200000 0.100000 0
3.300000 0.100000 0
3.400000 0.100000 0
3.500000 0.100000 0
3.600000 0.100000 0
3.700000 0.100000 0
3.800000 0.100000 0
3.900000 0.100000 0
4.000000 0.100000 0
4.100000 0.100000 0
4.200000 0.100000 0
4.300000 0.100000 0
4.400000 0.100000 0
4.500000 0.100000 0
4.600000 0.100000 0
4.700000 0.100000 0
4.800000 0.100000 0
4.900000 0.100000 0
5.000000 0.100000 0
5.100000 0.100000 0
5.200000 0.100000 0
5.300000 0.100000 0
5.400000 0.100000 0
5.500000 0.100000 0
5.600000 0.100000 0
5.700000 0.100000 0
5.800000 0.100000 0
5.900000 0.100000 0
6.000000 0.100000 0
6.100000 0.100000 0
6.200000 0.100000 0
6.300000 0.100000 0
6.400000 0.100000 0
6.500000 0.100000 0
6.600000 0.100000 0
6.700000 0.100000 0
6.800000 0.100000 0
6.900000 0.100000 0
7.000000 0.100000 0
7.100000 0.100000 0
7.200000 0.100000 0
7.300000 0.100000 0
7.400000 0.100000 0
7.500000 0.100000 0
7.600000 0.100000 0
7.700000 0.100000 0
7.800000 0.100000 0
7.900000 0.100000 0
8.000000 0.100000 0
8.100000 0.100000 0
8.200000 0.100000 0
8.300000 0.100000 0
8.400000 0.100000 0
8.500000 0.100000 0
8.600000 0.100000 0
8.700000 0.100000 0
8.800000 0.100000 0
8.900000 0.100000 0
9.000000 0.100000 0
9.100000 0.100000 0
9.200000 0.100000 0
9.300000 0.100000 0
9.400000 0.100000 0
9.500000 0.100000 0
9.600000 0.100000 0
9.700000 0.100000 0
9.800000 0.100000 0
9.900000 0.100000 0
10.000000 0.100000 0
0.000000 0.200000 0
0.100000 0.200000 0
0.200000 0.200000 0
0.300000 0.200000 0
0.400000 0.200000 0
0.500000 0.200000 0
0.600000 0.200000 0
0.700000 0.200000 0
0.800000 0.200000 0
0.900000 0.200000 0
1.000000 0.200000 0
1.100000 0.200000 0
1.200000 0.200000 0
1.300000 0.200000 0
1.400000 0.200000 0
1.500000 0.200000 0
1.600000 0.200000 0
1.700000 0.200000 0
1.800000 0.200000 0
1.900000 0.200000 0
2.000000 0.200000 0
2.100000 0.200000 0
2.200000 0.200000 0
2.300000 0.200000 0
2.400000 0.200000 0
2.500000 0.200000 0
2.600000 0.200000 0
2.700000 0.200000 0
2.800000 0.200000 0
2.900000 0.200000 0
3.000000 0.200000 0
3.100000 0.200000 0
3.200000 0.200000 0
3.300000 0.200000 0
3.400000 0.200000 0
3.500000 0.200000 0
3.600000 0.200000 0
3.700000 0.200000 0
3.800000 0.200000 0
3.900000 0.200000 0
4.000000 0.200000 0
4.100000 0.200000 0
4.200000 0.200000 0
4.300000 0.200000 0
4.400000 0.200000 0
4.500000 0.200000 0
4.600000 0.200000 0
4.700000 0.200000 0
4.800000 0.200000 0
4.900000 0.200000 0
5.000000 0.200000 0
5.100000 0.200000 0
5.200000 0.200000 0
5.300000 0.200000 0
5.400000 0.200000 0
5.500000 0.200000 0
5.600000 0.200000 0
5.700000 0.200000 0
5.800000 0.200000 0
5.900000 0.200000 0
6.000000 0.200000 0
6.100000 0.200000 0
6.200000 0.200000 0
6.300000 0.200000 0
6.400000 0.200000 0
6.500000 0.200000 0
6.600000 0.200000 0
6.700000 0.200000 0
6.800000 0.200000 0
6.900000 0.200000 0
7.000000 0.200000 0
7.100000 0.200000 0
7.200000 0.200000 0
7.300000 0.200000 0
7.400000 0.200000 0
7.500000 0.200000 0
7.600000 0.200000 0
7.700000 0.200000 0
7.800000 0.200000 0
7.900000 0.200000 0
8.000000 0.200000 0
8.100000 0.200000 0
8.200000 0.200000 0
8.300000 0.200000 0
8.400000 0.200000 0
8.500000 0.200000 0
8.600000 0.200000 0
8.700000 0.200000 0
8.800000 0.200000 0
8.900000 0.200000 0
9.000000 0.200000 0
9.100000 0.200000 0
9.200000 0.200000 0
9.300000 0.200000 0
9.400000 0.200000 0
9.500000 0.200000 0
9.600000 0.200000 0
9.700000 0.200000 0
9.800000 0.200000 0
9.900000 0.200000 0
10.000000 0.200000 0
0.000000 0.300000 0
0.100000 0.300000 0
0.200000 0.300000 0
0.300000 0.300000 0
0.400000 0.300000 0
0.500000 0.300000 0
0.600000 0.300000 0
0.700000 0.300000 0
0.800000 0.300000 0
0.900000 0.300000 0
1.000000 0.300000 0
1.100000 0.300000 0
1.200000 0.300000 0
1.300000 0.300000 0
1.400000 0.300000 0
1.500000 0.300000 0
1.600000 0.300000 0
1.700000 0.300000 0
1.800000 0.300000 0
1.900000 0.300000 0
2.000000 0.300000 0
2.100000 0.300000 0
2.200000 0.300000 0
2.300000 0.300000 0
2.400000 0.300000 0
2.500000 0.300000 0
2.600000 0.300000 0
2.700000 0.300000 0
2.800000 0.300000 0
2.900000 0.300000 0
3.000000 0.300000 0
3.100000 0.300000 0
3.200000 0.300000 0
3.300000 0.300000 0
3.400000 0.300000 0
3.500000 0.300000 0
3.600000 0.300000 0
3.700000 0.300000 0
3.800000 0.300000 0
3.900000 0.300000 0
4.000000 0.300000 0
4.100000 0.300000 0
4.200000 0.300000 0
4.300000 0.300000 0
4.400000 0.300000 0
4.500000 0.300000 0
4.600000 0.300000 0
4.700000 0.300000 0
4.800000 0.300000 0
4.900000 0.300000 0
5.000000 0.300000 0
5.100000 0.300000 0
5.200000 0.300000 0
5.300000 0.300000 0
5.400000 0.300000 0
5.500000 0.300000 0
5.600000 0.300000 0
5.700000 0.300000 0
5.800000 0.300000 0
5.900000 0.300000 0
6.000000 0.300000 0
6.100000 0.300000 0
6.200000 0.300000 0
6.300000 0.300000 0
6.400000 0.300000 0
6.500000 0.300000 0
6.600000 0.300000 0
6.700000 0.300000 0
6.800000 0.300000 0
6.900000 0.300000 0
7.000000 0.300000 0
7.100000 0.300000 0
7.200000 0.300000 0
7.300000 0.300000 0
7.400000 0.300000 0
7.500000 0.300000 0
7.600000 0.300000 0
7.700000 0.300000 0
7.800000 0.300000 0
7.900000 0.300000 0
8.000000 0.300000 0
8.100000 0.300000 0
8.200000 0.300000 0
8.300000 0.300000 0
8.400000 0.300000 0
8.500000 0.300000 0
8.600000 0.300000 0
8.700000 0.300000 0
8.800000 0.300000 0
8.900000 0.300000 0
9.000000 0.300000 0
9.100000 0.300000 0
9.200000 0.300000 0
9.300000 0.300000 0
9.400000 0.300000 0
9.500000 0.300000 0
9.600000 0.300000 0
9.700000 0.300000 0
9.800000 0.300000 0
9.900000 0.300000 0
10.000000 0.300000 0
0.000000 0.400000 0
0.100000 0.400000 0
0.200000 0.400000 0
0.300000 0.400000 0
0.400000 0.400000 0
0.500000 0.400000 0
0.600000 0.400000 0
0.700000 0.400000 0
0.800000 0.400000 0
0.900000 0.400000 0
1.000000 0.400000 0
1.100000 0.400000 0
1.200000 0.400000 0
1.300000 0.400000 0
1.400000 0.400000 0
1.500000 0.400000 0
1.600000 0.400000 0
1.700000 0.400000 0
1.800000 0.400000 0
1.900000 0.400000 0
2.000000 0.400000 0
2.100000 0.400000 0
2.200000 0.400000 0
2.300000 0.400000 0
2.400000 0.400000 0
2.500000 0.400000 0
2.600000 0.400000 0
2.700000 0.400000 0
2.800000 0.400000 0
2.900000 0.400000 0
3.000000 0.400000 0
3.100000 0.400000 0
3.200000 0.400000 0
3.300000 0.400000 0
3.400000 0.400000 0
3.500000 0.400000 0
3.600000 0.400000 0
3.700000 0.400000 0
3.800000 0.400000 0
3.900000 0.400000 0
4.000000 0.400000 0
4.100000 0.400000 0
4.200000 0.400000 0
4.300000 0.400000 0
4.400000 0.400000 0
4.500000 0.400000 0
4.600000 0.400000 0
4.700000 0.400000 0
4.800000 0.400000 0
4.900000 0.400000 0
5.000000 0.400000 0
5.100000 0.400000 0
5.200000 0.400000 0
5.300000 0.400000 0
5.400000 0.400000 0
5.500000 0.400000 0
5.600000 0.400000 0
5.700000 0.400000 0
5.800000 0.400000 0
5.900000 0.400000 0
6.000000 0.400000 0
6.100000 0.400000 0
6.200000 0.400000 0
6.300000 0.400000 0
6.400000 0.400000 0
6.500000 0.400000 0
6.600000 0.400000 0
6.700000 0.400000 0
6.800000 0.400000 0
6.900000 0.400000 0
7.000000 0.400000 0
7.100000 0.400000 0
7.200000 0.400000 0
7.300000 0.400000 0
7.400000 0.400000 0
7.500000 0.400000 0
7.600000 0.400000 0
7.700000 0.400000 0
7.800000 0.400000 0
7.900000 0.400000 0
8.000000 0.400000 0
8.100000 0.400000 0
8.200000 0.400000 0
8.300000 0.400000 0
8.400000 0.400000 0
8.500000 0.400000 0
8.600000 0.400000 0
[...]
POINT_DATA 2121 

VECTORS velocity float
0.500000 0.000000 0
-0.000001 0.000000 0
-0.000004 0.000000 0
-0.000010 0.000000 0
-0.000023 0.000000 0
-0.000043 0.000000 0
-0.000071 0.000000 0
-0.000108 0.000000 0
-0.000156 0.000000 0
-0.000212 0.000000 0
-0.000274 0.000000 0
-0.000332 0.000000 0
-0.000374 0.000000 0
-0.000382 0.000000 0
-0.000331 0.000000 0
-0.000200 0.000000 0
0.000019 0.000000 0
0.000316 0.000000 0
0.000668 0.000000 0
0.001035 0.000000 0
0.001377 0.000000 0
0.001655 0.000000 0
0.001831 0.000000 0
0.001880 0.000000 0
0.001784 0.000000 0
0.001532 0.000000 0
0.001124 0.000000 0
0.000563 0.000000 0
-0.000139 0.000000 0
-0.000967 0.000000 0
-0.001895 0.000000 0
-0.002832 0.000000 0
-0.003645 0.000000 0
-0.004176 0.000000 0
-0.004278 0.000000 0
-0.003870 0.000000 0
-0.002989 0.000000 0
-0.001792 0.000000 0
-0.000499 0.000000 0
0.000761 0.000000 0
0.001893 0.000000 0
0.002832 0.000000 0
0.003550 0.000000 0
0.004038 0.000000 0
0.004302 0.000000 0
0.004352 0.000000 0
0.004199 0.000000 0
0.003848 0.000000 0
0.003299 0.000000 0
0.002546 0.000000 0
0.001577 0.000000 0
0.000392 0.000000 0
-0.000940 0.000000 0
-0.002269 0.000000 0
-0.003525 0.000000 0
-0.004649 0.000000 0
-0.005571 0.000000 0
-0.006197 0.000000 0
-0.006420 0.000000 0
-0.006130 0.000000 0
-0.005250 0.000000 0
-0.003813 0.000000 0
-0.002012 0.000000 0
-0.000144 0.000000 0
0.001635 0.000000 0
0.003234 0.000000 0
0.004562 0.000000 0
0.005544 0.000000 0
0.006134 0.000000 0
0.006311 0.000000 0
0.006074 0.000000 0
0.005443 0.000000 0
0.004459 0.000000 0
0.003189 0.000000 0
0.001737 0.000000 0
0.000253 0.000000 0
-0.001021 0.000000 0
-0.002018 0.000000 0
-0.002788 0.000000 0
-0.003397 0.000000 0
-0.003896 0.000000 0
-0.004313 0.000000 0
-0.004642 0.000000 0
-0.004842 0.000000 0
-0.004834 0.000000 0
-0.004519 0.000000 0
-0.003811 0.000000 0
-0.002693 0.000000 0
-0.001254 0.000000 0
0.000329 0.000000 0
0.001951 0.000000 0
0.003538 0.000000 0
0.004985 0.000000 0
0.006164 0.000000 0
0.006940 0.000000 0
0.007198 0.000000 0
0.006883 0.000000 0
0.006060 0.000000 0
0.004928 0.000000 0
0.003809 0.000000 0
0.003275 0.000000 0
1.000000 -0.000001 0
1.002531 -0.004574 0
1.010396 -0.009962 0
1.024011 -0.015867 0
1.043845 -0.022100 0
1.070226 -0.028305 0
1.103034 -0.033846 0
1.141301 -0.037839 0
1.182922 -0.039381 0
1.224546 -0.038135 0
1.263108 -0.034628 0
1.296760 -0.029785 0
1.324808 -0.024429 0
1.347266 -0.019046 0
1.364415 -0.013780 0
1.376460 -0.008569 0
1.383391 -0.003307 0
1.385031 0.002037 0
1.381218 0.007382 0
1.371961 0.012534 0
1.357562 0.017213 0
1.338660 0.021130 0
1.316191 0.024030 0
1.291320 0.025726 0
1.265365 0.026103 0
1.239717 0.025115 0
1.215775 0.022775 0
1.194885 0.019144 0
1.178305 0.014307 0
1.167178 0.008360 0
1.162500 0.001483 0
1.165006 -0.005797 0
1.174900 -0.012576 0
1.191448 -0.017788 0
1.212690 -0.020392 0
1.235538 -0.019720 0
1.256334 -0.015797 0
1.271729 -0.009425 0
1.279494 -0.001834 0
1.278841 0.005946 0
1.270065 0.013232 0
1.254108 0.019532 0
1.232279 0.024558 0
1.206048 0.028186 0
1.176900 0.030397 0
1.146278 0.031221 0
1.115564 0.030698 0
1.086085 0.028852 0
1.059127 0.025679 0
1.035936 0.021136 0
1.017679 0.015155 0
1.005373 0.007759 0
0.999795 -0.000597 0
1.001457 -0.009105 0
1.010544 -0.017126 0
1.026871 -0.024236 0
1.049818 -0.030010 0
1.078310 -0.033963 0
1.110802 -0.035548 0
1.145206 -0.034212 0
1.178826 -0.029587 0
1.208450 -0.021822 0
1.230767 -0.011861 0
1.243079 -0.001150 0
1.244169 0.009225 0
1.234566 0.018671 0
1.215568 0.026682 0
1.188959 0.032827 0
1.156861 0.036798 0
1.121602 0.038412 0
1.085583 0.037598 0
1.051145 0.034391 0
1.020426 0.028955 0
0.995166 0.021632 0
0.976503 0.013011 0
0.964844 0.004030 0
0.959947 -0.004061 0
0.961172 -0.010532 0
0.967582 -0.015500 0
0.978306 -0.019320 0
0.992663 -0.022319 0
1.010185 -0.024706 0
1.030549 -0.026519 0
1.053426 -0.027589 0
1.078265 -0.027546 0
1.104094 -0.025907 0
1.129409 -0.022249 0
1.152222 -0.016469 0
1.170267 -0.009001 0
1.181396 -0.000673 0
1.184170 0.007809 0
1.178442 0.015959 0
1.164927 0.023217 0
1.144912 0.028904 0
1.120271 0.032290 0
1.093382 0.032735 0
1.066905 0.029928 0
1.043383 0.024165 0
1.024720 0.016428 0
1.011740 0.009912 0
1.003260 0.007065 0
1.000000 -0.000000 0
1.002845 -0.010409 0
1.011154 -0.021492 0
1.025295 -0.033463 0
1.045952 -0.046229 0
1.073875 -0.059200 0
1.109484 -0.071081 0
1.152195 -0.079885 0
1.199849 -0.083231 0
1.246976 -0.080168 0
1.289231 -0.072198 0
1.324826 -0.061688 0
1.353709 -0.050501 0
1.376572 -0.039601 0
1.394201 -0.029182 0
1.407058 -0.018965 0
1.415105 -0.008563 0
1.417909 0.002179 0
1.415065 0.013075 0
1.406406 0.023658 0
1.392180 0.033299 0
1.373071 0.041367 0
1.350106 0.047333 0
1.324551 0.050817 0
1.297814 0.051592 0
1.271361 0.049578 0
1.246636 0.044820 0
1.225003 0.037458 0
1.207705 0.027696 0
1.195866 0.015798 0
1.190537 0.002169 0
1.192734 -0.012397 0
1.203155 -0.026434 0
1.221509 -0.037778 0
1.246027 -0.044076 0
1.273451 -0.043630 0
1.299512 -0.036179 0
1.319875 -0.023152 0
1.331413 -0.007107 0
1.333149 0.009434 0
1.325824 0.024738 0
1.310786 0.037789 0
1.289652 0.048062 0
1.264072 0.055381 0
1.235601 0.059770 0
1.205671 0.061335 0
1.175590 0.060191 0
1.146569 0.056434 0
1.119725 0.050145 0
1.096053 0.041444 0
1.076365 0.030558 0
1.061219 0.017879 0
1.050964 0.003911 0
1.046057 -0.010753 0
1.047024 -0.025417 0
1.054140 -0.039276 0
1.067388 -0.051438 0
1.086551 -0.060980 0
1.111249 -0.066891 0
1.140722 -0.068017 0
1.173461 -0.063236 0
1.206956 -0.051932 0
1.237691 -0.034620 0
1.261533 -0.013396 0
1.274902 0.008518 0
1.276684 0.028604 0
1.268051 0.045609 0
1.250763 0.058708 0
1.226904 0.067357 0
1.198712 0.071277 0
1.168420 0.070456 0
1.138092 0.065155 0
1.109464 0.055977 0
1.083799 0.043921 0
1.061814 0.030320 0
1.043748 0.016553 0
1.029661 0.003668 0
1.019755 -0.007639 0
1.013995 -0.017137 0
1.012119 -0.025085 0
1.013926 -0.031885 0
1.019433 -0.037892 0
1.028872 -0.043249 0
1.042531 -0.047726 0
1.060459 -0.050679 0
1.082228 -0.051156 0
1.106824 -0.048143 0
1.132643 -0.040875 0
1.157529 -0.029192 0
1.178899 -0.013922 0
1.194226 0.002934 0
1.201970 0.019222 0
1.202322 0.033509 0
1.196320 0.044634 0
1.185394 0.051507 0
1.171196 0.053343 0
1.155378 0.049976 0
1.139376 0.042162 0
1.124299 0.031620 0
1.110851 0.021438 0
1.101296 0.016233 0
1.000000 -0.000000 0
1.002438 -0.015738 0
1.009904 -0.032418 0
1.023043 -0.050671 0
1.043028 -0.070683 0
1.071437 -0.091836 0
1.109888 -0.112159 0
1.158914 -0.128190 0
1.217351 -0.134150 0
1.273043 -0.127512 0
1.319153 -0.112477 0
1.355033 -0.094269 0
1.382375 -0.076179 0
1.403265 -0.059533 0
1.419445 -0.044262 0
1.431890 -0.029472 0
1.440455 -0.014157 0
1.444048 0.002075 0
1.441617 0.018883 0
1.432610 0.035416 0
1.417191 0.050544 0
1.396164 0.063199 0
1.370743 0.072544 0
1.342379 0.078012 0
1.312644 0.079289 0
1.283141 0.076288 0
1.255417 0.069127 0
1.230881 0.058071 0
1.210755 0.043446 0
1.196099 0.025532 0
1.187990 0.004621 0
1.187745 -0.018406 0
1.196633 -0.041342 0
1.214839 -0.060651 0
1.241027 -0.072328 0
1.272397 -0.073203 0
1.304706 -0.062222 0
1.332568 -0.041328 0
1.350784 -0.015108 0
1.356671 0.011536 0
1.351300 0.035596 0
1.336883 0.055703 0
1.315698 0.071271 0
1.289797 0.082236 0
1.260916 0.088797 0
1.230494 0.091231 0
1.199735 0.089798 0
1.169674 0.084715 0
1.141219 0.076193 0
1.115160 0.064494 0
1.092149 0.049987 0
1.072671 0.033158 0
1.056997 0.014562 0
1.045150 -0.005166 0
1.037083 -0.025207 0
1.033022 -0.044597 0
1.033512 -0.062417 0
1.039538 -0.077820 0
1.052356 -0.089714 0
1.072762 -0.096418 0
1.100407 -0.095818 0
1.133543 -0.086050 0
1.169112 -0.066436 0
1.202997 -0.038361 0
1.230417 -0.005928 0
1.247159 0.025520 0
1.252541 0.052602 0
1.247968 0.073974 0
1.235247 0.088848 0
1.216361 0.096895 0
1.193273 0.098218 0
1.167778 0.093346 0
1.141393 0.083247 0
1.115331 0.069282 0
1.090542 0.053061 0
1.067757 0.036181 0
1.047430 0.019931 0
1.029660 0.005132 0
1.014429 -0.007865 0
1.001736 -0.019253 0
0.991992 -0.029635 0
0.986125 -0.039655 0
0.985271 -0.049621 0
0.990378 -0.059180 0
1.001781 -0.067249 0
1.019060 -0.072278 0
1.041161 -0.072669 0
1.066618 -0.067180 0
1.093712 -0.055263 0
1.120540 -0.037375 0
1.144943 -0.015267 0
1.164510 0.007857 0
1.177699 0.028861 0
1.184697 0.045827 0
1.186207 0.057409 0
1.183115 0.062746 0
1.176358 0.061743 0
1.166878 0.055240 0
1.155712 0.044949 0
1.144087 0.032911 0
1.134834 0.026060 0
1.000000 -0.000000 0
1.001901 -0.020322 0
1.007877 -0.042103 0
1.018853 -0.066591 0
1.036593 -0.094623 0
1.063890 -0.126054 0
1.104546 -0.158547 0
1.161948 -0.187338 0
1.240442 -0.197355 0
1.307002 -0.181970 0
1.353281 -0.154193 0
1.384064 -0.124915 0
1.404754 -0.098729 0
1.419421 -0.076665 0
1.431136 -0.057807 0
1.441793 -0.039974 0
1.451324 -0.020720 0
1.457300 0.001015 0
1.456736 0.024510 0
1.448331 0.048080 0
1.432140 0.069741 0
1.409212 0.087812 0
1.381061 0.101113 0
1.349377 0.108910 0
1.315941 0.110826 0
1.282556 0.106802 0
1.250949 0.097076 0
1.222630 0.082120 0
1.198752 0.062482 0
1.180114 0.038567 0
1.167209 0.010531 0
1.160489 -0.021032 0
1.161438 -0.053521 0
1.171242 -0.082166 0
1.190215 -0.101631 0
1.218058 -0.107310 0
1.252872 -0.096353 0
1.289983 -0.069230 0
1.321995 -0.031210 0
1.341188 0.008918 0
1.344958 0.044526 0
1.336462 0.073391 0
1.318966 0.095148 0
1.295228 0.110162 0
1.267434 0.119072 0
1.237276 0.122515 0
1.206079 0.121010 0
1.174911 0.114948 0
1.144680 0.104658 0
1.116166 0.090512 0
1.089968 0.073045 0
1.066322 0.053030 0
1.044873 0.031432 0
1.024679 0.009161 0
1.004777 -0.013287 0
0.985364 -0.035701 0
0.968970 -0.057950 0
0.959367 -0.079819 0
0.959802 -0.100110 0
0.971651 -0.116065 0
0.994274 -0.124013 0
1.025649 -0.120635 0
1.062929 -0.104074 0
1.102675 -0.074702 0
1.140795 -0.035645 0
1.172304 0.006479 0
1.193004 0.044799 0
1.202866 0.076002 0
1.203147 0.098963 0
1.195443 0.113251 0
1.181431 0.119039 0
1.162723 0.117035 0
1.140772 0.108423 0
1.116852 0.094771 0
1.092030 0.077893 0
1.067097 0.059664 0
1.042482 0.041765 0
1.018303 0.025362 0
0.994746 0.010786 0
0.972576 -0.002649 0
0.953277 -0.016276 0
0.938906 -0.031174 0
0.931467 -0.047505 0
0.931994 -0.064240 0
0.940323 -0.079365 0
0.955445 -0.090541 0
0.975967 -0.095705 0
1.000410 -0.093430 0
1.027339 -0.083118 0
1.055367 -0.065156 0
1.083050 -0.041040 0
1.108683 -0.013536 0
1.130060 0.013320 0
1.145885 0.036123 0
1.156208 0.053086 0
1.161331 0.063190 0
1.161739 0.066211 0
1.158117 0.062806 0
1.151432 0.054409 0
1.142957 0.042314 0
1.134914 0.035040 0
1.000000 -0.000000 0
1.001069 -0.023625 0
1.004563 -0.049374 0
1.011499 -0.079388 0
1.024042 -0.115718 0
1.046226 -0.159781 0
1.085034 -0.210208 0
1.150074 -0.264081 0
1.263695 -0.279204 0
1.334577 -0.240354 0
1.366222 -0.189545 0
1.379431 -0.145742 0
1.384124 -0.111529 0
1.385218 -0.085912 0
1.386636 -0.066634 0
1.391753 -0.049660 0
1.401787 -0.029665 0
1.413413 -0.003339 0
1.418868 0.027849 0
1.414633 0.060009 0
1.400868 0.089660 0
1.379077 0.114274 0
1.351017 0.132375 0
1.318456 0.143128 0
1.283230 0.146106 0
1.247271 0.141276 0
1.212490 0.129053 0
1.180455 0.110271 0
1.152036 0.085966 0
1.127342 0.057082 0
1.105882 0.024253 0
1.086349 -0.012627 0
1.067952 -0.052089 0
1.055066 -0.089424 0
1.053274 -0.119144 0
1.067002 -0.135863 0
1.097127 -0.134149 0
1.140250 -0.110449 0
1.188958 -0.066312 0
1.232595 -0.011428 0
1.260500 0.040321 0
1.271288 0.081694 0
1.269033 0.112504 0
1.257081 0.133767 0
1.238063 0.146747 0
1.214058 0.152584 0
1.186739 0.152161 0
1.157483 0.146112 0
1.127453 0.134937 0
1.097585 0.119204 0
1.068356 0.099830 0
1.039340 0.078252 0
1.009016 0.056206 0
0.975722 0.034932 0
0.939685 0.014111 0
0.904283 -0.008786 0
0.875224 -0.036416 0
0.858259 -0.068648 0
0.855675 -0.101994 0
0.866402 -0.130887 0
0.888095 -0.149813 0
0.918327 -0.154704 0
0.954797 -0.143463 0
0.995154 -0.116227 0
1.036753 -0.075557 0
1.076308 -0.026689 0
1.108945 0.022041 0
1.131454 0.063830 0
1.144045 0.096270 0
1.147618 0.118611 0
1.143379 0.130938 0
1.132628 0.134005 0
1.116616 0.129117 0
1.096448 0.118024 0
1.072967 0.102816 0
1.046689 0.085729 0
1.017949 0.068724 0
0.987360 0.052868 0
0.956416 0.037861 0
0.927674 0.022215 0
0.904105 0.004034 0
0.888080 -0.017847 0
0.880785 -0.042712 0
0.882033 -0.068039 0
0.890667 -0.090703 0
0.905242 -0.107925 0
0.924409 -0.117636 0
0.947018 -0.118555 0
0.972057 -0.110222 0
0.998580 -0.093087 0
1.025621 -0.068584 0
1.052092 -0.039154 0
1.076553 -0.008342 0
1.096986 0.019679 0
1.112462 0.041964 0
1.122849 0.057215 0
1.128270 0.064957 0
1.129141 0.065547 0
1.126203 0.060110 0
1.120499 0.049429 0
1.113800 0.042768 0
1.000000 -0.000001 0
0.999893 -0.024894 0
0.999744 -0.052535 0
1.000258 -0.086070 0
1.003244 -0.129345 0
1.012907 -0.187039 0
1.038802 -0.262390 0
1.100448 -0.365998 0
1.261836 -0.381861 0
1.307528 -0.284501 0
1.292765 -0.199048 0
1.271639 -0.142811 0
1.250963 -0.104511 0
1.231109 -0.079176 0
1.214569 -0.064343 0
1.206425 -0.055127 0
1.211847 -0.042382 0
1.231387 -0.016069 0
1.253606 0.023287 0
1.263388 0.066077 0
1.261510 0.105293 0
1.250282 0.137658 0
1.231300 0.161730 0
1.205761 0.176695 0
1.175109 0.182008 0
1.141242 0.177539 0
1.106294 0.163894 0
1.071732 0.142577 0
1.036853 0.115600 0
0.998504 0.084729 0
0.954137 0.051533 0
0.905803 0.016904 0
0.859817 -0.022234 0
0.825704 -0.067487 0
0.813213 -0.113569 0
0.824162 -0.151165 0
0.855970 -0.169599 0
0.904603 -0.161060 0
0.964929 -0.123554 0
1.029778 -0.062625 0
1.088199 0.005832 0
1.129068 0.064858 0
1.152537 0.109353 0
1.162168 0.141130 0
1.160632 0.162093 0
1.150158 0.173837 0
1.132661 0.177583 0
1.109759 0.174232 0
1.082678 0.164554 0
1.051955 0.149607 0
1.017091 0.131289 0
0.976747 0.112370 0
0.930305 0.095051 0
0.880205 0.078495 0
0.832773 0.058155 0
0.795764 0.028764 0
0.773979 -0.011922 0
0.767621 -0.060266 0
0.773620 -0.108249 0
0.788600 -0.148483 0
0.810381 -0.175937 0
0.837861 -0.187337 0
0.870315 -0.180902 0
0.906771 -0.156658 0
0.945756 -0.116799 0
0.985255 -0.065712 0
1.022380 -0.010347 0
1.052508 0.040901 0
1.073823 0.082799 0
1.086303 0.113917 0
1.090458 0.134028 0
1.087046 0.143797 0
1.076862 0.144602 0
1.060571 0.138419 0
1.038627 0.127651 0
1.011423 0.114682 0
0.979788 0.101094 0
0.945622 0.086895 0
0.912121 0.070472 0
0.883135 0.049661 0
0.861919 0.023316 0
0.849926 -0.007856 0
0.846612 -0.041459 0
0.850405 -0.074124 0
0.859647 -0.102575 0
0.873054 -0.124284 0
0.889755 -0.137482 0
0.909151 -0.141078 0
0.930734 -0.134681 0
0.953956 -0.118720 0
0.978159 -0.094551 0
1.002551 -0.064468 0
1.026157 -0.031573 0
1.047564 0.000216 0
1.065084 0.027226 0
1.078093 0.047384 0
1.086392 0.059921 0
1.090105 0.064876 0
1.089693 0.063055 0
1.085957 0.054720 0
1.080495 0.049295 0
1.000000 -0.000002 0
0.998476 -0.023376 0
0.993824 -0.049741 0
0.985877 -0.082885 0
0.974739 -0.128361 0
0.961840 -0.195334 0
0.953381 -0.297745 0
0.971194 -0.487114 0
1.127421 -0.486287 0
1.112119 -0.271286 0
1.006178 -0.153651 0
0.946079 -0.103934 0
0.903227 -0.070998 0
0.864389 -0.049518 0
0.826615 -0.041951 0
0.799291 -0.046940 0
0.796547 -0.054630 0
0.826001 -0.045102 0
0.879630 -0.004155 0
0.931051 0.052101 0
0.963219 0.102762 0
0.981697 0.144480 0
0.987944 0.176893 0
0.981890 0.199317 0
0.963893 0.210623 0
0.934527 0.210092 0
0.894032 0.198565 0
0.842288 0.179717 0
0.780182 0.159200 0
0.711816 0.139805 0
0.645423 0.116961 0
0.592149 0.081697 0
0.561906 0.028012 0
0.555926 -0.042821 0
0.569127 -0.117604 0
0.596572 -0.178619 0
0.635682 -0.214589 0
0.685790 -0.219408 0
0.746326 -0.191487 0
0.815204 -0.134698 0
0.887591 -0.058970 0
0.952503 0.017354 0
1.000298 0.079402 0
1.031858 0.125671 0
1.049371 0.158755 0
1.054631 0.180554 0
1.049248 0.192559 0
1.034505 0.196094 0
1.011044 0.192739 0
0.978610 0.184790 0
0.936485 0.175037 0
0.885300 0.165039 0
0.829483 0.152750 0
0.777613 0.132467 0
0.738901 0.098556 0
0.718363 0.050013 0
0.714969 -0.008268 0
0.722778 -0.068286 0
0.736065 -0.122970 0
0.752023 -0.167645 0
0.770115 -0.199074 0
0.791025 -0.214639 0
0.815704 -0.212372 0
0.844573 -0.191669 0
0.877108 -0.154042 0
0.911917 -0.103313 0
0.947007 -0.045213 0
0.979185 0.012387 0
1.004784 0.062476 0
1.022714 0.101976 0
1.032678 0.130194 0
1.034763 0.147601 0
1.029182 0.155591 0
1.016153 0.156259 0
0.996003 0.151964 0
0.969580 0.144567 0
0.938809 0.134525 0
0.906911 0.120536 0
0.877821 0.100348 0
0.854965 0.072416 0
0.840190 0.037242 0
0.833549 -0.002542 0
0.833715 -0.043192 0
0.838816 -0.081073 0
0.847330 -0.113352 0
0.858321 -0.138032 0
0.871352 -0.153732 0
0.886303 -0.159532 0
0.903139 -0.155025 0
0.921716 -0.140510 0
0.941666 -0.117176 0
0.962385 -0.087149 0
0.983070 -0.053351 0
1.002730 -0.019243 0
1.019898 0.011440 0
1.033396 0.035912 0
1.042736 0.052950 0
1.047783 0.062252 0
1.048772 0.064263 0
1.046358 0.058632 0
1.042055 0.054668 0
1.000000 -0.000002 0
0.997115 -0.018724 0
0.988056 -0.039935 0
0.971451 -0.066981 0
0.944614 -0.105302 0
0.902719 -0.165676 0
0.836906 -0.271741 0
0.731540 -0.540038 0
0.545928 -0.522787 0
0.000278 -0.163257 0
0.394683 -0.033005 0
0.322756 -0.039859 0
0.303443 -0.022821 0
0.294568 -0.002565 0
0.279981 0.000753 0
0.269308 -0.025062 0
0.279658 -0.069095 0
0.322331 -0.099157 0
0.397714 -0.081767 0
0.490948 -0.017515 0
0.572199 0.054644 0
0.628765 0.112930 0
0.665049 0.161534 0
0.680711 0.200743 0
0.675268 0.229371 0
0.648473 0.247402 0
0.601023 0.256136 0
0.536752 0.256434 0
0.465497 0.246080 0
0.402879 0.219494 0
0.364226 0.171205 0
0.356654 0.100425 0
0.376646 0.013989 0
0.410891 -0.074710 0
0.445937 -0.154215 0
0.478529 -0.217717 0
0.511429 -0.258817 0
0.549403 -0.271706 0
0.596543 -0.252968 0
0.654291 -0.203890 0
0.720681 -0.131469 0
0.790438 -0.047851 0
0.852019 0.029997 0
0.898115 0.092056 0
0.929421 0.139319 0
0.946809 0.173958 0
0.951070 0.197708 0
0.942716 0.212434 0
0.921876 0.220448 0
0.888787 0.224167 0
0.845285 0.224599 0
0.796621 0.219373 0
0.751439 0.202741 0
0.718514 0.169081 0
0.702381 0.117408 0
0.701770 0.052701 0
0.711652 -0.016332 0
0.725894 -0.081359 0
0.740363 -0.137493 0
0.753322 -0.182532 0
0.764911 -0.214940 0
0.776629 -0.232927 0
0.790633 -0.234449 0
0.808787 -0.218062 0
0.831797 -0.184143 0
0.858941 -0.135611 0
0.888460 -0.077615 0
0.918031 -0.016876 0
0.943995 0.039270 0
0.963999 0.086023 0
0.976980 0.121979 0
0.982398 0.147293 0
0.979991 0.163211 0
0.969787 0.171599 0
0.952389 0.174225 0
0.929402 0.171876 0
0.903658 0.163763 0
0.878805 0.147883 0
0.858255 0.122418 0
0.844098 0.087291 0
0.836719 0.044732 0
0.835239 -0.001381 0
0.838168 -0.046725 0
0.843893 -0.087738 0
0.851186 -0.122079 0
0.859349 -0.148303 0
0.868204 -0.165460 0
0.877980 -0.172861 0
0.889097 -0.170090 0
0.901891 -0.157242 0
0.916391 -0.135215 0
0.932244 -0.105866 0
0.948773 -0.071912 0
0.965086 -0.036606 0
0.980103 -0.003432 0
0.992475 0.024554 0
1.001449 0.045542 0
1.006697 0.058847 0
1.008305 0.064487 0
1.006846 0.061446 0
1.003699 0.058870 0
1.000000 -0.000003 0
0.996201 -0.011437 0
0.984181 -0.024074 0
0.961742 -0.039439 0
0.924269 -0.059623 0
0.862542 -0.087621 0
0.756961 -0.126564 0
0.564380 -0.196136 0
0.074179 0.000260 0
-0.528918 0.121969 0
0.000000 -0.000034 0
-0.033100 -0.023324 0
-0.050945 -0.042811 0
-0.066411 -0.026058 0
-0.085962 -0.016694 0
-0.095830 -0.046621 0
-0.082142 -0.107657 0
-0.044172 -0.163162 0
0.018621 -0.172777 0
0.111390 -0.122388 0
0.216391 -0.035058 0
0.297432 0.051627 0
0.352617 0.124943 0
0.383539 0.189097 0
0.390324 0.242863 0
0.374871 0.284339 0
0.342925 0.310290 0
0.305558 0.315249 0
0.277387 0.293081 0
0.270837 0.241082 0
0.290340 0.163190 0
0.330789 0.069278 0
0.378393 -0.026225 0
0.419672 -0.112113 0
0.450638 -0.185241 0
0.471577 -0.244110 0
0.486219 -0.285463 0
0.500996 -0.304522 0
0.523211 -0.296376 0
0.558170 -0.258837 0
0.606765 -0.195118 0
0.665244 -0.113986 0
0.726222 -0.028276 0
0.778173 0.048266 0
0.816339 0.110058 0
0.840408 0.158903 0
0.850367 0.196651 0
0.846330 0.225286 0
0.828947 0.246667 0
0.800466 0.261381 0
0.765938 0.267205 0
0.733170 0.258886 0
0.710228 0.230860 0
0.701747 0.181528 0
0.707200 0.115304 0
0.722383 0.040747 0
0.741705 -0.032389 0
0.760089 -0.096995 0
0.774824 -0.150397 0
0.784721 -0.192193 0
0.789970 -0.222381 0
0.792190 -0.240361 0
0.794209 -0.244530 0