# vtk DataFile Version 2.0
generated by CFD-lab course output (written by Tobias Neckel) 
ASCII

DATASET STRUCTURED_GRID
DIMENSIONS  101 21 1 
POINTS 2121 float

0.000000 0.000000 0
0.100000 0.000000 0
0.200000 0.000000 0
0.300000 0.000000 0
0.400000 0.000000 0
0.500000 0.000000 0
0.600000 0.000000 0
0.700000 0.000000 0
0.800000 0.000000 0
0.900000 0.000000 0
1.000000 0.000000 0
1.100000 0.000000 0
1.200000 0.000000 0
1.300000 0.000000 0
1.400000 0.000000 0
1.500000 0.000000 0
1.600000 0.000000 0
1.700000 0.000000 0
1.800000 0.000000 0
1.900000 0.000000 0
2.000000 0.000000 0
2.100000 0.000000 0
2.200000 0.000000 0
2.300000 0.000000 0
2.400000 0.000000 0
2.500000 0.000000 0
2.600000 0.000000 0
2.700000 0.000000 0
2.800000 0.000000 0
2.900000 0.000000 0
3.000000 0.000000 0
3.100000 0.000000 0
3.200000 0.000000 0
3.300000 0.000000 0
3.400000 0.000000 0
3.500000 0.000000 0
3.600000 0.000000 0
3.700000 0.000000 0
3.800000 0.000000 0
3.900000 0.000000 0
4.000000 0.000000 0
4.100000 0.000000 0
4.200000 0.000000 0
4.300000 0.000000 0
4.400000 0.000000 0
4.500000 0.000000 0
4.600000 0.000000 0
4.700000 0.000000 0
4.800000 0.000000 0
4.900000 0.000000 0
5.000000 0.000000 0
5.100000 0.000000 0
5.200000 0.000000 0
5.300000 0.000000 0
5.400000 0.000000 0
5.500000 0.000000 0
5.600000 0.000000 0
5.700000 0.000000 0
5.800000 0.000000 0
5.900000 0.000000 0
6.000000 0.000000 0
6.100000 0.000000 0
6.200000 0.000000 0
6.300000 0.000000 0
6.400000 0.000000 0
6.500000 0.000000 0
6.600000 0.000000 0
6.700000 0.000000 0
6.800000 0.000000 0
6.900000 0.000000 0
7.000000 0.000000 0
7.100000 0.000000 0
7.200000 0.000000 0
7.300000 0.000000 0
7.400000 0.000000 0
7.500000 0.000000 0
7.600000 0.000000 0
7.700000 0.000000 0
7.800000 0.000000 0
7.900000 0.000000 0
8.000000 0.000000 0
8.100000 0.000000 0
8.200000 0.000000 0
8.300000 0.000000 0
8.400000 0.000000 0
8.500000 0.000000 0
8.600000 0.000000 0
8.700000 0.000000 0
8.800000 0.000000 0
8.900000 0.000000 0
9.000000 0.000000 0
9.100000 0.000000 0
9.200000 0.000000 0
9.300000 0.000000 0
9.400000 0.000000 0
9.500000 0.000000 0
9.600000 0.000000 0
9.700000 0.000000 0
9.800000 0.000000 0
9.900000 0.000000 0
10.000000 0.000000 0
0.000000 0.100000 0
0.100000 0.100000 0
0.200000 0.100000 0
0.300000 0.100000 0
0.400000 0.100000 0
0.500000 0.100000 0
0.600000 0.100000 0
0.700000 0.100000 0
0.800000 0.100000 0
0.900000 0.100000 0
1.000000 0.100000 0
1.100000 0.100000 0
1.200000 0.100000 0
1.300000 0.100000 0
1.400000 0.100000 0
1.500000 0.100000 0
1.600000 0.100000 0
1.700000 0.100000 0
1.800000 0.100000 0
1.900000 0.100000 0
2.000000 0.100000 0
2.100000 0.100000 0
2.200000 0.100000 0
2.300000 0.100000 0
2.400000 0.100000 0
2.500000 0.100000 0
2.600000 0.100000 0
2.700000 0.100000 0
2.800000 0.100000 0
2.900000 0.100000 0
3.000000 0.100000 0
3.100000 0.100000 0
3.200000 0.100000 0
3.300000 0.100000 0
3.400000 0.100000 0
3.500000 0.100000 0
3.600000 0.100000 0
3.700000 0.100000 0
3.800000 0.100000 0
3.900000 0.100000 0
4.000000 0.100000 0
4.100000 0.100000 0
4.200000 0.100000 0
4.300000 0.100000 0
4.400000 0.100000 0
4.500000 0.100000 0
4.600000 0.100000 0
4.700000 0.100000 0
4.800000 0.100000 0
4.900000 0.100000 0
5.000000 0.100000 0
5.100000 0.100000 0
5.200000 0.100000 0
5.300000 0.100000 0
5.400000 0.100000 0
5.500000 0.100000 0
5.600000 0.100000 0
5.700000 0.100000 0
5.800000 0.100000 0
5.900000 0.100000 0
6.000000 0.100000 0
6.100000 0.100000 0
6.200000 0.100000 0
6.300000 0.100000 0
6.400000 0.100000 0
6.500000 0.100000 0
6.600000 0.100000 0
6.700000 0.100000 0
6.800000 0.100000 0
6.900000 0.100000 0
7.000000 0.100000 0
7.100000 0.100000 0
7.200000 0.100000 0
7.300000 0.100000 0
7.400000 0.100000 0
7.500000 0.100000 0
7.600000 0.100000 0
7.700000 0.100000 0
7.800000 0.100000 0
7.900000 0.100000 0
8.000000 0.100000 0
8.100000 0.100000 0
8.200000 0.100000 0
8.300000 0.100000 0
8.400000 0.100000 0
8.500000 0.100000 0
8.600000 0.100000 0
8.700000 0.100000 0
8.800000 0.100000 0
8.900000 0.100000 0
9.000000 0.100000 0
9.100000 0.100000 0
9.200000 0.100000 0
9.300000 0.100000 0
9.400000 0.100000 0
9.500000 0.100000 0
9.600000 0.100000 0
9.700000 0.100000 0
9.800000 0.100000 0
9.900000 0.100000 0
10.000000 0.100000 0
0.000000 0.200000 0
0.100000 0.200000 0
0.200000 0.200000 0
0.300000 0.200000 0
0.400000 0.200000 0
0.500000 0.200000 0
0.600000 0.200000 0
0.700000 0.200000 0
0.800000 0.200000 0
0.900000 0.200000 0
1.000000 0.200000 0
1.100000 0.200000 0
1.200000 0.200000 0
1.300000 0.200000 0
1.400000 0.200000 0
1.500000 0.200000 0
1.600000 0.200000 0
1.700000 0.200000 0
1.800000 0.200000 0
1.900000 0.200000 0
2.000000 0.200000 0
2.100000 0.200000 0
2.200000 0.200000 0
2.300000 0.200000 0
2.400000 0.200000 0
2.500000 0.200000 0
2.600000 0.200000 0
2.700000 0.200000 0
2.800000 0.200000 0
2.900000 0.200000 0
3.000000 0.200000 0
3.100000 0.200000 0
3.200000 0.200000 0
3.300000 0.200000 0
3.400000 0.200000 0
3.500000 0.200000 0
3.600000 0.200000 0
3.700000 0.200000 0
3.800000 0.200000 0
3.900000 0.200000 0
4.000000 0.200000 0
4.100000 0.200000 0
4.200000 0.200000 0
4.300000 0.200000 0
4.400000 0.200000 0
4.500000 0.200000 0
4.600000 0.200000 0
4.700000 0.200000 0
4.800000 0.200000 0
4.900000 0.200000 0
5.000000 0.200000 0
5.100000 0.200000 0
5.200000 0.200000 0
5.300000 0.200000 0
5.400000 0.200000 0
5.500000 0.200000 0
5.600000 0.200000 0
5.700000 0.200000 0
5.800000 0.200000 0
5.900000 0.200000 0
6.000000 0.200000 0
6.100000 0.200000 0
6.200000 0.200000 0
6.300000 0.200000 0
6.400000 0.200000 0
6.500000 0.200000 0
6.600000 0.200000 0
6.700000 0.200000 0
6.800000 0.200000 0
6.900000 0.200000 0
7.000000 0.200000 0
7.100000 0.200000 0
7.200000 0.200000 0
7.300000 0.200000 0
7.400000 0.200000 0
7.500000 0.200000 0
7.600000 0.200000 0
7.700000 0.200000 0
7.800000 0.200000 0
7.900000 0.200000 0
8.000000 0.200000 0
8.100000 0.200000 0
8.200000 0.200000 0
8.300000 0.200000 0
8.400000 0.200000 0
8.500000 0.200000 0
8.600000 0.200000 0
8.700000 0.200000 0
8.800000 0.200000 0
8.900000 0.200000 0
9.000000 0.200000 0
9.100000 0.200000 0
9.200000 0.200000 0
9.300000 0.200000 0
9.400000 0.200000 0
9.500000 0.200000 0
9.600000 0.200000 0
9.700000 0.200000 0
9.800000 0.200000 0
9.900000 0.200000 0
10.000000 0.200000 0
0.000000 0.300000 0
0.100000 0.300000 0
0.200000 0.300000 0
0.300000 0.300000 0
0.400000 0.300000 0
0.500000 0.300000 0
0.600000 0.300000 0
0.700000 0.300000 0
0.800000 0.300000 0
0.900000 0.300000 0
1.000000 0.300000 0
1.100000 0.300000 0
1.200000 0.300000 0
1.300000 0.300000 0
1.400000 0.300000 0
1.500000 0.300000 0
1.600000 0.300000 0
1.700000 0.300000 0
1.800000 0.300000 0
1.900000 0.300000 0
2.000000 0.300000 0
2.100000 0.300000 0
2.200000 0.300000 0
2.300000 0.300000 0
2.400000 0.300000 0
2.500000 0.300000 0
2.600000 0.300000 0
2.700000 0.300000 0
2.800000 0.300000 0
2.900000 0.300000 0
3.000000 0.300000 0
3.100000 0.300000 0
3.200000 0.300000 0
3.300000 0.300000 0
3.400000 0.300000 0
3.500000 0.300000 0
3.600000 0.300000 0
3.700000 0.300000 0
3.800000 0.300000 0
3.900000 0.300000 0
4.000000 0.300000 0
4.100000 0.300000 0
4.200000 0.300000 0
4.300000 0.300000 0
4.400000 0.300000 0
4.500000 0.300000 0
4.600000 0.300000 0
4.700000 0.300000 0
4.800000 0.300000 0
4.900000 0.300000 0
5.000000 0.300000 0
5.100000 0.300000 0
5.200000 0.300000 0
5.300000 0.300000 0
5.400000 0.300000 0
5.500000 0.300000 0
5.600000 0.300000 0
5.700000 0.300000 0
5.800000 0.300000 0
5.900000 0.300000 0
6.000000 0.300000 0
6.100000 0.300000 0
6.200000 0.300000 0
6.300000 0.300000 0
6.400000 0.300000 0
6.500000 0.300000 0
6.600000 0.300000 0
6.700000 0.300000 0
6.800000 0.300000 0
6.900000 0.300000 0
7.000000 0.300000 0
7.100000 0.300000 0
7.200000 0.300000 0
7.300000 0.300000 0
7.400000 0.300000 0
7.500000 0.300000 0
7.600000 0.300000 0
7.700000 0.300000 0
7.800000 0.300000 0
7.900000 0.300000 0
8.000000 0.300000 0
8.100000 0.300000 0
8.200000 0.300000 0
8.300000 0.300000 0
8.400000 0.300000 0
8.500000 0.300000 0
8.600000 0.300000 0
8.700000 0.300000 0
8.800000 0.300000 0
8.900000 0.300000 0
9.000000 0.300000 0
9.100000 0.300000 0
9.200000 0.300000 0
9.300000 0.300000 0
9.400000 0.300000 0
9.500000 0.300000 0
9.600000 0.300000 0
9.700000 0.300000 0
9.800000 0.300000 0
9.900000 0.300000 0
10.000000 0.300000 0
0.000000 0.400000 0
0.100000 0.400000 0
0.200000 0.400000 0
0.300000 0.400000 0
0.400000 0.400000 0
0.500000 0.400000 0
0.600000 0.400000 0
0.700000 0.400000 0
0.800000 0.400000 0
0.900000 0.400000 0
1.000000 0.400000 0
1.100000 0.400000 0
1.200000 0.400000 0
1.300000 0.400000 0
1.400000 0.400000 0
1.500000 0.400000 0
1.600000 0.400000 0
1.700000 0.400000 0
1.800000 0.400000 0
1.900000 0.400000 0
2.000000 0.400000 0
2.100000 0.400000 0
2.200000 0.400000 0
2.300000 0.400000 0
2.400000 0.400000 0
2.500000 0.400000 0
2.600000 0.400000 0
2.700000 0.400000 0
2.800000 0.400000 0
2.900000 0.400000 0
3.000000 0.400000 0
3.100000 0.400000 0
3.200000 0.400000 0
3.300000 0.400000 0
3.400000 0.400000 0
3.500000 0.400000 0
3.600000 0.400000 0
3.700000 0.400000 0
3.800000 0.400000 0
3.900000 0.400000 0
4.000000 0.400000 0
4.100000 0.400000 0
4.200000 0.400000 0
4.300000 0.400000 0
4.400000 0.400000 0
4.500000 0.400000 0
4.600000 0.400000 0
4.700000 0.400000 0
4.800000 0.400000 0
4.900000 0.400000 0
5.000000 0.400000 0
5.100000 0.400000 0
5.200000 0.400000 0
5.300000 0.400000 0
5.400000 0.400000 0
5.500000 0.400000 0
5.600000 0.400000 0
5.700000 0.400000 0
5.800000 0.400000 0
5.900000 0.400000 0
6.000000 0.400000 0
6.100000 0.400000 0
6.200000 0.400000 0
6.300000 0.400000 0
6.400000 0.400000 0
6.500000 0.400000 0
6.600000 0.400000 0
6.700000 0.400000 0
6.800000 0.400000 0
6.900000 0.400000 0
7.000000 0.400000 0
7.100000 0.400000 0
7.200000 0.400000 0
7.300000 0.400000 0
7.400000 0.400000 0
7.500000 0.400000 0
7.600000 0.400000 0
7.700000 0.400000 0
7.800000 0.400000 0
7.900000 0.400000 0
8.000000 0.400000 0
8.100000 0.400000 0
8.200000 0.400000 0
8.300000 0.400000 0
8.400000 0.400000 0
8.500000 0.400000 0
8.600000 0.400000 0
[...]
POINT_DATA 2121 

VECTORS velocity float
0.500000 0.000000 0
0.000003 0.000000 0
0.000012 0.000000 0
0.000025 0.000000 0
0.000041 0.000000 0
0.000057 0.000000 0
0.000069 0.000000 0
0.000072 0.000000 0
0.000060 0.000000 0
0.000026 0.000000 0
-0.000037 0.000000 0
-0.000131 0.000000 0
-0.000260 0.000000 0
-0.000422 0.000000 0
-0.000606 0.000000 0
-0.000794 0.000000 0
-0.000955 0.000000 0
-0.001044 0.000000 0
-0.001014 0.000000 0
-0.000832 0.000000 0
-0.000492 0.000000 0
-0.000024 0.000000 0
0.000519 0.000000 0
0.001078 0.000000 0
0.001594 0.000000 0
0.002024 0.000000 0
0.002332 0.000000 0
0.002495 0.000000 0
0.002498 0.000000 0
0.002330 0.000000 0
0.001990 0.000000 0
0.001476 0.000000 0
0.000792 0.000000 0
-0.000060 0.000000 0
-0.001079 0.000000 0
-0.002215 0.000000 0
-0.003340 0.000000 0
-0.004312 0.000000 0
-0.004959 0.000000 0
-0.005118 0.000000 0
-0.004692 0.000000 0
-0.003708 0.000000 0
-0.002329 0.000000 0
-0.000815 0.000000 0
0.000642 0.000000 0
0.001954 0.000000 0
0.003046 0.000000 0
0.003878 0.000000 0
0.004441 0.000000 0
0.004743 0.000000 0
0.004800 0.000000 0
0.004632 0.000000 0
0.004249 0.000000 0
0.003659 0.000000 0
0.002859 0.000000 0
0.001846 0.000000 0
0.000634 0.000000 0
-0.000691 0.000000 0
-0.001964 0.000000 0
-0.003133 0.000000 0
-0.004174 0.000000 0
-0.005058 0.000000 0
-0.005737 0.000000 0
-0.006139 0.000000 0
-0.006164 0.000000 0
-0.005704 0.000000 0
-0.004695 0.000000 0
-0.003189 0.000000 0
-0.001398 0.000000 0
0.000414 0.000000 0
0.002143 0.000000 0
0.003687 0.000000 0
0.004950 0.000000 0
0.005850 0.000000 0
0.006324 0.000000 0
0.006338 0.000000 0
0.005882 0.000000 0
0.004987 0.000000 0
0.003728 0.000000 0
0.002228 0.000000 0
0.000661 0.000000 0
-0.000736 0.000000 0
-0.001804 0.000000 0
-0.002603 0.000000 0
-0.003212 0.000000 0
-0.003703 0.000000 0
-0.004125 0.000000 0
-0.004498 0.000000 0
-0.004811 0.000000 0
-0.005015 0.000000 0
-0.005032 0.000000 0
-0.004773 0.000000 0
-0.004169 0.000000 0
-0.003211 0.000000 0
-0.001982 0.000000 0
-0.000635 0.000000 0
0.000718 0.000000 0
0.002019 0.000000 0
0.003184 0.000000 0
0.004106 0.000000 0
0.004722 0.000000 0
1.000000 -0.000003 0
1.002614 -0.004674 0
1.010641 -0.010115 0
1.024448 -0.016005 0
1.044430 -0.022141 0
1.070824 -0.028151 0
1.103404 -0.033381 0
1.141074 -0.036939 0
1.181588 -0.037926 0
1.221465 -0.036043 0
1.257570 -0.031884 0
1.288064 -0.026489 0
1.312396 -0.020852 0
1.330928 -0.015692 0
1.344571 -0.011422 0
1.354483 -0.008168 0
1.361797 -0.005789 0
1.367355 -0.003921 0
1.371480 -0.002068 0
1.373854 0.000243 0
1.373654 0.003305 0
1.369896 0.007128 0
1.361794 0.011465 0
1.348979 0.015932 0
1.331551 0.020126 0
1.310022 0.023698 0
1.285214 0.026383 0
1.258162 0.028001 0
1.230036 0.028436 0
1.202086 0.027627 0
1.175590 0.025552 0
1.151827 0.022216 0
1.132044 0.017632 0
1.117447 0.011793 0
1.109171 0.004705 0
1.108215 -0.003318 0
1.115298 -0.011543 0
1.130520 -0.019000 0
1.152960 -0.024579 0
1.180440 -0.027203 0
1.209651 -0.026174 0
1.236647 -0.021495 0
1.257670 -0.014003 0
1.270042 -0.005124 0
1.272707 0.003873 0
1.266012 0.012228 0
1.251033 0.019438 0
1.229263 0.025182 0
1.202388 0.029319 0
1.172121 0.031840 0
1.140112 0.032800 0
1.107916 0.032276 0
1.076991 0.030323 0
1.048712 0.026961 0
1.024365 0.022171 0
1.005107 0.015937 0
0.991866 0.008376 0
0.985248 0.000054 0
0.985541 -0.008145 0
0.992700 -0.015637 0
1.006417 -0.022190 0
1.026141 -0.027623 0
1.051088 -0.031703 0
1.080229 -0.034080 0
1.112182 -0.034274 0
1.145042 -0.031762 0
1.176289 -0.026222 0
1.202914 -0.017904 0
1.221854 -0.007836 0
1.230708 0.002676 0
1.228616 0.012770 0
1.216258 0.021897 0
1.194965 0.029519 0
1.166570 0.035158 0
1.133297 0.038428 0
1.097632 0.039064 0
1.062168 0.036945 0
1.029412 0.032155 0
1.001524 0.025048 0
0.980032 0.016305 0
0.965630 0.006948 0
0.958196 -0.001643 0
0.957098 -0.008479 0
0.961327 -0.013546 0
0.969849 -0.017277 0
0.981856 -0.020106 0
0.996813 -0.022359 0
1.014424 -0.024211 0
1.034521 -0.025651 0
1.056879 -0.026473 0
1.081009 -0.026309 0
1.106016 -0.024732 0
1.130550 -0.021417 0
1.152897 -0.016347 0
1.171203 -0.009966 0
1.183824 -0.003094 0
1.189787 0.003452 0
1.189262 0.008963 0
1.183678 0.012571 0
1.175298 0.010976 0
1.169590 0.008794 0
1.000000 -0.000007 0
1.002933 -0.010630 0
1.011424 -0.021831 0
1.025792 -0.033786 0
1.046650 -0.046373 0
1.074664 -0.058970 0
1.110152 -0.070245 0
1.152395 -0.078177 0
1.199055 -0.080382 0
1.244494 -0.075972 0
1.284248 -0.066591 0
1.316478 -0.054818 0
1.341162 -0.042855 0
1.359218 -0.032165 0
1.372025 -0.023545 0
1.381154 -0.017215 0
1.388123 -0.012862 0
1.394112 -0.009674 0
1.399609 -0.006490 0
1.404120 -0.002166 0
1.406329 0.003965 0
1.404764 0.011865 0
1.398343 0.020921 0
1.386613 0.030246 0
1.369750 0.038959 0
1.348399 0.046338 0
1.323510 0.051860 0
1.296209 0.055177 0
1.267727 0.056075 0
1.239343 0.054446 0
1.212344 0.050260 0
1.187988 0.043548 0
1.167475 0.034383 0
1.151927 0.022879 0
1.142386 0.009238 0
1.139862 -0.006120 0
1.145388 -0.022298 0
1.159546 -0.037654 0
1.181904 -0.049912 0
1.210747 -0.056684 0
1.243125 -0.056200 0
1.275060 -0.048012 0
1.302054 -0.033388 0
1.320123 -0.015031 0
1.327131 0.004035 0
1.323483 0.021679 0
1.310690 0.036753 0
1.290604 0.048648 0
1.265152 0.057145 0
1.236177 0.062278 0
1.205364 0.064206 0
1.174226 0.063122 0
1.144107 0.059206 0
1.116187 0.052627 0
1.091448 0.043605 0
1.070622 0.032500 0
1.054131 0.019860 0
1.042158 0.006327 0
1.034969 -0.007449 0
1.032936 -0.020873 0
1.036242 -0.033436 0
1.044910 -0.044666 0
1.058900 -0.054084 0
1.078176 -0.061090 0
1.102527 -0.064809 0
1.131211 -0.064102 0
1.162650 -0.057868 0
1.194303 -0.045563 0
1.222737 -0.027791 0
1.244055 -0.006759 0
1.255144 0.014452 0
1.255394 0.033653 0
1.245958 0.049689 0
1.228524 0.061668 0
1.205130 0.068937 0
1.177983 0.071127 0
1.149267 0.068216 0
1.120947 0.060638 0
1.094576 0.049371 0
1.071181 0.035884 0
1.051269 0.021824 0
1.035052 0.008516 0
1.022829 -0.003149 0
1.014719 -0.012772 0
1.010476 -0.020552 0
1.009791 -0.026989 0
1.012534 -0.032595 0
1.018839 -0.037738 0
1.029012 -0.042486 0
1.043306 -0.046521 0
1.061665 -0.049172 0
1.083569 -0.049576 0
1.108012 -0.046917 0
1.133547 -0.040690 0
1.158371 -0.030966 0
1.180461 -0.018622 0
1.197939 -0.005477 0
1.209730 0.006069 0
1.216035 0.013925 0
1.218281 0.014048 0
1.217885 0.012575 0
1.000000 -0.000010 0
1.002532 -0.016094 0
1.010203 -0.032974 0
1.023614 -0.051231 0
1.043876 -0.071013 0
1.072498 -0.091649 0
1.111006 -0.111109 0
1.159810 -0.125837 0
1.217508 -0.130021 0
1.271728 -0.121234 0
1.315475 -0.103865 0
1.347934 -0.083400 0
1.370595 -0.063588 0
1.385427 -0.046551 0
1.394524 -0.033354 0
1.400066 -0.024261 0
1.404206 -0.018744 0
1.408799 -0.015404 0
1.414832 -0.012074 0
1.421650 -0.006476 0
1.426873 0.002661 0
1.427820 0.015114 0
1.422833 0.029617 0
1.411373 0.044525 0
1.393829 0.058339 0
1.371128 0.069937 0
1.344450 0.078573 0
1.315076 0.083783 0
1.284327 0.085303 0
1.253535 0.083012 0
1.224007 0.076910 0
1.196993 0.067088 0
1.173647 0.053697 0
1.155015 0.036885 0
1.142073 0.016773 0
1.135816 -0.006316 0
1.137351 -0.031224 0
1.147449 -0.055514 0
1.166042 -0.075776 0
1.192260 -0.088421 0
1.224494 -0.090485 0
1.259947 -0.080422 0
1.294208 -0.059064 0
1.321671 -0.030199 0
1.337365 0.000515 0
1.339756 0.028670 0
1.330945 0.052318 0
1.313445 0.070720 0
1.289684 0.083747 0
1.261820 0.091628 0
1.231676 0.094751 0
1.200756 0.093532 0
1.170282 0.088362 0
1.141235 0.079621 0
1.114383 0.067737 0
1.090302 0.053255 0
1.069391 0.036842 0
1.051858 0.019218 0
1.037652 0.001078 0
1.026607 -0.016907 0
1.018752 -0.034161 0
1.014639 -0.050280 0
1.015289 -0.064968 0
1.022099 -0.077705 0
1.036206 -0.087307 0
1.057802 -0.091883 0
1.085876 -0.089313 0
1.118319 -0.077991 0
1.152146 -0.057587 0
1.183673 -0.029729 0
1.208701 0.001432 0
1.223783 0.031082 0
1.228706 0.056389 0
1.224632 0.075985 0
1.213135 0.088969 0
1.195966 0.094926 0
1.174854 0.093979 0
1.151362 0.086841 0
1.126825 0.074810 0
1.102373 0.059607 0
1.078984 0.043071 0
1.057432 0.026790 0
1.038123 0.011847 0
1.021250 -0.001201 0
1.006882 -0.012358 0
0.995227 -0.022173 0
0.986942 -0.031416 0
0.982997 -0.040698 0
0.984358 -0.050128 0
0.991614 -0.059136 0
1.004721 -0.066583 0
1.023025 -0.071089 0
1.045434 -0.071405 0
1.070604 -0.066717 0
1.097069 -0.056890 0
1.123301 -0.042671 0
1.147703 -0.025827 0
1.168614 -0.009143 0
1.184646 0.004012 0
1.195343 0.009117 0
1.199762 0.010754 0
1.000000 -0.000014 0
1.002000 -0.020830 0
1.008206 -0.042914 0
1.019501 -0.067458 0
1.037607 -0.095254 0
1.065274 -0.126097 0
1.106252 -0.157554 0
1.163849 -0.184676 0
1.242162 -0.192296 0
1.307914 -0.173937 0
1.352580 -0.142795 0
1.380675 -0.109934 0
1.397021 -0.080343 0
1.404852 -0.056091 0
1.406771 -0.038181 0
1.405410 -0.026894 0
1.403566 -0.021592 0
1.404159 -0.020298 0
1.409553 -0.019340 0
1.419595 -0.014206 0
1.430391 -0.002204 0
1.436280 0.015906 0
1.434271 0.037367 0
1.423882 0.059249 0
1.406018 0.079203 0
1.382091 0.095716 0
1.353586 0.107912 0
1.321944 0.115300 0
1.288573 0.117618 0
1.254871 0.114768 0
1.222209 0.106804 0
1.191871 0.093912 0
1.164988 0.076365 0
1.142477 0.054456 0
1.124918 0.028441 0
1.112329 -0.001395 0
1.104518 -0.033929 0
1.102420 -0.066343 0
1.107145 -0.094721 0
1.120195 -0.115133 0
1.143066 -0.123884 0
1.175675 -0.117725 0
1.215132 -0.095111 0
1.255450 -0.058187 0
1.288499 -0.014048 0
1.307058 0.028100 0
1.310616 0.063065 0
1.302362 0.089909 0
1.285321 0.108771 0
1.262141 0.120287 0
1.235020 0.125270 0
1.205729 0.124516 0
1.175669 0.118727 0
1.145934 0.108528 0
1.117371 0.094540 0
1.090580 0.077492 0
1.065825 0.058306 0
1.042875 0.038069 0
1.020988 0.017804 0
0.999345 -0.001970 0
0.977975 -0.021467 0
0.958723 -0.041201 0
0.945166 -0.061541 0
0.940626 -0.082005 0
0.946738 -0.100511 0
0.963206 -0.113771 0
0.988431 -0.118383 0
1.020159 -0.111832 0
1.055811 -0.093145 0
1.092523 -0.063313 0
1.126966 -0.025657 0
1.154927 0.013648 0
1.173333 0.048840 0
1.182329 0.077239 0
1.182837 0.097602 0
1.176100 0.109406 0
1.163461 0.112817 0
1.146236 0.108664 0
1.125670 0.098357 0
1.102923 0.083720 0
1.079018 0.066759 0
1.054735 0.049371 0
1.030556 0.033027 0
1.006839 0.018462 0
0.984251 0.005463 0
0.963985 -0.007056 0
0.947682 -0.020372 0
0.937160 -0.035162 0
0.933715 -0.051110 0
0.937655 -0.066891 0
0.948390 -0.080591 0
0.964810 -0.090297 0
0.985612 -0.094503 0
1.009495 -0.092333 0
1.035220 -0.083670 0
1.061599 -0.069263 0
1.087427 -0.050797 0
1.111363 -0.030880 0
1.131831 -0.012810 0
1.147138 -0.001074 0
1.154746 0.004885 0
1.000000 -0.000018 0
1.001171 -0.024299 0
1.004907 -0.050475 0
1.012197 -0.080631 0
1.025184 -0.116783 0
1.047897 -0.160291 0
1.087343 -0.209680 0
1.153172 -0.261745 0
1.267707 -0.274084 0
1.339173 -0.231649 0
1.370968 -0.176623 0
1.383772 -0.127837 0
1.386699 -0.087760 0
1.382700 -0.056298 0
1.373557 -0.033909 0
1.361456 -0.021054 0
1.349049 -0.017491 0
1.340102 -0.021390 0
1.339927 -0.027509 0
1.351221 -0.027313 0
1.370152 -0.014024 0
1.386776 0.011234 0
1.392438 0.042015 0
1.387017 0.072778 0
1.372559 0.100130 0
1.351131 0.122369 0
1.324391 0.138720 0
1.293709 0.148797 0
1.260398 0.152377 0
1.225822 0.149378 0
1.191371 0.139913 0
1.158319 0.124313 0
1.127640 0.103095 0
1.099868 0.076959 0
1.074921 0.046924 0
1.051539 0.014086 0
1.027188 -0.021312 0
1.001450 -0.058138 0
0.980549 -0.093548 0
0.972176 -0.124339 0
0.981024 -0.145963 0
1.007472 -0.152486 0
1.048576 -0.138837 0
1.098947 -0.103565 0
1.150899 -0.051092 0
1.194635 0.006553 0
1.221899 0.057014 0
1.233580 0.096016 0
1.232850 0.123969 0
1.222535 0.141930 0
1.205091 0.151162 0
1.182603 0.152883 0
1.156814 0.148158 0
1.129141 0.137920 0
1.100659 0.123093 0
1.071932 0.104803 0
1.042730 0.084548 0
1.011977 0.064057 0
0.978555 0.044611 0
0.942895 0.026109 0
0.908008 0.006463 0
0.878692 -0.017469 0
0.859690 -0.046869 0
0.853501 -0.079275 0
0.859552 -0.109886 0
0.875789 -0.133575 0
0.899996 -0.146265 0
0.930206 -0.145369 0
0.964594 -0.129950 0
1.001288 -0.100883 0
1.038172 -0.060971 0
1.072549 -0.015284 0
1.100357 0.028988 0
1.119553 0.066481 0
1.130195 0.095196 0
1.132875 0.114300 0
1.128462 0.123840 0
1.117936 0.124629 0
1.102281 0.118119 0
1.082398 0.106255 0
1.059021 0.091254 0
1.032746 0.075248 0
1.004274 0.059738 0
0.974841 0.045100 0
0.946509 0.030490 0
0.921901 0.014390 0
0.903398 -0.004596 0
0.892477 -0.026735 0
0.889521 -0.050629 0
0.893877 -0.073817 0
0.904353 -0.093742 0
0.919670 -0.108315 0
0.938671 -0.116094 0
0.960339 -0.116329 0
0.983749 -0.108999 0
1.007996 -0.094882 0
1.032133 -0.075594 0
1.055077 -0.053551 0
1.075502 -0.031767 0
1.091795 -0.013800 0
1.100820 -0.003391 0
1.000000 -0.000022 0
0.999989 -0.025736 0
1.000074 -0.053940 0
1.000944 -0.087734 0
1.004403 -0.130951 0
1.014697 -0.188254 0
1.041490 -0.262827 0
1.104545 -0.365037 0
1.268458 -0.378295 0
1.316595 -0.277196 0
1.304438 -0.187390 0
1.286627 -0.125660 0
1.270092 -0.079268 0
1.252223 -0.042947 0
1.230335 -0.016935 0
1.203901 -0.002383 0
1.176352 -0.000236 0
1.152094 -0.011174 0
1.136564 -0.030458 0
1.138717 -0.044431 0
1.161933 -0.037759 0
1.197283 -0.006380 0
1.225857 0.037126 0
1.238151 0.079128 0
1.238964 0.115089 0
1.231277 0.143885 0
1.216548 0.165335 0
1.195656 0.179294 0
1.169595 0.185506 0
1.139651 0.183798 0
1.107273 0.174311 0
1.073564 0.157647 0
1.038284 0.134820 0
0.999124 0.107178 0
0.953126 0.076773 0
0.900587 0.046342 0
0.847366 0.016163 0
0.801947 -0.019701 0
0.772819 -0.065444 0
0.764785 -0.115606 0
0.776837 -0.159178 0
0.806067 -0.185274 0
0.849444 -0.186585 0
0.903701 -0.160508 0
0.964623 -0.109735 0
1.026036 -0.042899 0
1.077988 0.024121 0
1.113375 0.078959 0
1.133786 0.119816 0
1.141564 0.148046 0
1.138908 0.165202 0
1.127843 0.172793 0
1.110167 0.172190 0
1.087314 0.164684 0
1.060119 0.151751 0
1.028534 0.135423 0
0.991730 0.118263 0
0.949205 0.102246 0
0.902698 0.086889 0
0.857259 0.068579 0
0.819819 0.042739 0
0.795659 0.007118 0
0.785818 -0.036349 0
0.787965 -0.081865 0
0.798828 -0.122797 0
0.815980 -0.154214 0
0.838106 -0.172799 0
0.864519 -0.176429 0
0.894604 -0.164225 0
0.927448 -0.136890 0
0.961744 -0.096917 0
0.995791 -0.048537 0
1.027033 0.001836 0
1.051902 0.047400 0
1.069248 0.084278 0
1.078902 0.111137 0
1.081134 0.127754 0
1.076424 0.134843 0
1.065305 0.133893 0
1.048267 0.126978 0
1.025790 0.116408 0
0.998612 0.104115 0
0.968172 0.090929 0
0.936913 0.076224 0
0.908046 0.058400 0
0.884734 0.036052 0
0.869096 0.009049 0
0.861560 -0.021288 0
0.861239 -0.052513 0
0.866743 -0.081724 0
0.876749 -0.106386 0
0.890227 -0.124617 0
0.906417 -0.135174 0
0.924716 -0.137412 0
0.944549 -0.131327 0
0.965276 -0.117648 0
0.986134 -0.097879 0
1.006197 -0.074251 0
1.024326 -0.049529 0
1.039148 -0.026393 0
1.048011 -0.012376 0
1.000000 -0.000025 0
0.998556 -0.024372 0
0.994101 -0.051429 0
0.986461 -0.084959 0
0.975750 -0.130534 0
0.963446 -0.197375 0
0.955893 -0.299526 0
0.975313 -0.488711 0
1.135163 -0.486132 0
1.123512 -0.267625 0
1.022012 -0.146650 0
0.967378 -0.093488 0
0.936671 -0.053354 0
0.908673 -0.016539 0
0.868178 0.014414 0
0.818155 0.032931 0
0.765897 0.034318 0
0.721245 0.018400 0
0.694478 -0.014132 0
0.698404 -0.052682 0
0.737745 -0.072590 0
0.802845 -0.052689 0
0.877151 0.001148 0
0.938288 0.059670 0
0.977318 0.107003 0
1.001445 0.144786 0
1.013182 0.174343 0
1.013229 0.195753 0
1.002355 0.208384 0
0.981364 0.211703 0
0.950580 0.206004 0
0.909363 0.193306 0
0.856497 0.177538 0
0.792270 0.162120 0
0.721356 0.145463 0
0.654125 0.119848 0
0.603972 0.077331 0
0.580057 0.016412 0
0.579975 -0.056384 0
0.595316 -0.128354 0
0.620122 -0.187243 0
0.652534 -0.225091 0
0.693089 -0.236470 0
0.742432 -0.218743 0
0.799762 -0.173426 0
0.862284 -0.106811 0
0.924710 -0.030324 0
0.977089 0.040218 0
1.014648 0.095780 0
1.038535 0.136808 0
1.050103 0.164884 0
1.050771 0.181625 0
1.041827 0.188689 0
1.024138 0.187969 0
0.997898 0.181875 0
0.962823 0.173194 0
0.919327 0.163879 0
0.870408 0.153090 0
0.822461 0.136560 0
0.783317 0.108990 0
0.758494 0.068065 0
0.748896 0.016534 0
0.751291 -0.039173 0
0.760647 -0.092284 0
0.773545 -0.137900 0
0.788563 -0.172851 0
0.805640 -0.194803 0
0.825375 -0.201867 0
0.848339 -0.192877 0
0.874559 -0.168022 0
0.903336 -0.129313 0
0.933382 -0.080573 0
0.962990 -0.027124 0
0.989261 0.024266 0
1.009732 0.068195 0
1.023485 0.102412 0
1.030159 0.126318 0
1.029683 0.140457 0
1.022133 0.146275 0
1.007729 0.145768 0
0.987052 0.140907 0
0.961420 0.132863 0
0.933168 0.121436 0
0.905464 0.105224 0
0.881546 0.082668 0
0.863782 0.053340 0
0.853130 0.018577 0
0.849252 -0.018879 0
0.850865 -0.055812 0
0.856520 -0.089327 0
0.865074 -0.117227 0
0.875787 -0.137982 0
0.888246 -0.150582 0
0.902222 -0.154459 0
0.917498 -0.149557 0
0.933728 -0.136465 0
0.950356 -0.116513 0
0.966600 -0.091741 0
0.981462 -0.064716 0
0.993772 -0.037483 0
1.001499 -0.020691 0
1.000000 -0.000028 0
0.997167 -0.019837 0
0.988240 -0.041844 0
0.971846 -0.069381 0
0.945307 -0.107935 0
0.903814 -0.168396 0
0.838538 -0.274691 0
0.733814 -0.544305 0
0.549309 -0.526492 0
0.000356 -0.164041 0
0.402921 -0.031252 0
0.336520 -0.040316 0
0.330402 -0.020560 0
0.329479 0.025548 0
0.306463 0.073585 0
0.261906 0.099899 0
0.213259 0.096675 0
0.179769 0.060246 0
0.179164 -0.007617 0
0.214523 -0.087698 0
0.278513 -0.142200 0
0.362244 -0.145787 0
0.462111 -0.098318 0
0.566420 -0.021038 0
0.653304 0.051933 0
0.714301 0.108021 0
0.754757 0.153552 0
0.776440 0.190123 0
0.779946 0.217374 0
0.765344 0.235576 0
0.732385 0.246315 0
0.681738 0.251733 0
0.617672 0.251916 0
0.550537 0.242321 0
0.495159 0.214921 0
0.463975 0.163729 0
0.460384 0.090233 0
0.478513 0.004298 0
0.505853 -0.080700 0
0.532656 -0.155750 0
0.556714 -0.216395 0
0.580120 -0.258240 0
0.606973 -0.276482 0
0.641371 -0.267181 0
0.685436 -0.229586 0
0.738260 -0.167846 0
0.796330 -0.090684 0
0.853423 -0.010979 0
0.900263 0.058370 0
0.934290 0.112592 0
0.955703 0.152967 0
0.964992 0.181070 0
0.962624 0.198824 0
0.948838 0.208614 0
0.923853 0.213068 0
0.888802 0.213996 0
0.847170 0.210679 0
0.805382 0.199115 0
0.771067 0.173982 0
0.749646 0.132548 0
0.742062 0.077161 0
0.745452 0.014323 0
0.755279 -0.048098 0
0.767363 -0.104118 0
0.779273 -0.150711 0
0.790182 -0.186307 0
0.800555 -0.209610 0
0.811748 -0.219126 0
0.825386 -0.213408 0
0.842612 -0.191886 0
0.863555 -0.155739 0
0.887323 -0.108191 0
0.912358 -0.054043 0
0.936618 0.000659 0
0.957168 0.050053 0
0.972378 0.090710 0
0.981323 0.121556 0
0.983479 0.142869 0
0.978634 0.155846 0
0.967010 0.162057 0
0.949545 0.162716 0
0.928141 0.157999 0
0.905572 0.146885 0
0.884890 0.127845 0
0.868545 0.100082 0
0.857770 0.064470 0
0.852568 0.023580 0
0.852146 -0.019021 0
0.855278 -0.059778 0
0.860727 -0.095930 0
0.867560 -0.125650 0
0.875227 -0.147786 0
0.883547 -0.161605 0
0.892606 -0.166659 0
0.902569 -0.162829 0
0.913477 -0.150501 0
0.925087 -0.130745 0
0.936833 -0.105352 0
0.947874 -0.076697 0
0.957194 -0.046424 0
0.963257 -0.027629 0
1.000000 -0.000029 0
0.996218 -0.012612 0
0.984246 -0.026107 0
0.961892 -0.042025 0
0.924546 -0.062501 0
0.862981 -0.090604 0
0.757542 -0.129524 0
0.564900 -0.199481 0
0.073095 -0.000396 0
-0.533636 0.124162 0
0.000000 -0.000070 0
-0.030328 -0.031346 0
-0.048151 -0.046311 0
-0.072127 0.007402 0
-0.095333 0.081989 0
-0.121819 0.126136 0
-0.141313 0.116456 0
-0.137621 0.052494 0
-0.101416 -0.048886 0
-0.049505 -0.152031 0
0.009107 -0.220311 0
0.078299 -0.236287 0
0.161034 -0.203028 0
0.258800 -0.131523 0
0.359853 -0.040877 0
0.442751 0.043333 0
0.500341 0.112205 0
0.535377 0.170567 0
0.548777 0.219483 0
0.541186 0.259266 0
0.514931 0.289614 0
0.476248 0.308022 0
0.436322 0.308742 0
0.408772 0.284636 0
0.403731 0.232028 0
0.422800 0.154626 0
0.459135 0.062796 0
0.500160 -0.029055 0
0.534902 -0.110525 0
0.560096 -0.179213 0
0.575712 -0.234705 0
0.584411 -0.275349 0
0.591325 -0.297719 0
0.602987 -0.297205 0
0.625018 -0.270314 0
0.659592 -0.217705 0
0.704589 -0.145487 0
0.754891 -0.063714 0
0.802604 0.014913 0
0.840344 0.081369 0
0.866456 0.134183 0
0.880448 0.174705 0
0.882166 0.204844 0
0.871837 0.226741 0
0.850704 0.241912 0
0.822016 0.249880 0
0.791479 0.247302 0
0.766034 0.229197 0
0.751089 0.192298 0
0.748249 0.137996 0
0.755438 0.072261 0
0.768816 0.003319 0